/*--------------------------------*- C++ -*----------------------------------*\
| =========                 |                                                 |
| \\      /  F ield         | OpenFOAM: The Open Source CFD Toolbox           |
|  \\    /   O peration     | Version:  2.0.x                                 |
|   \\  /    A nd           | Web:      www.OpenFOAM.org                      |
|    \\/     M anipulation  |                                                 |
\*---------------------------------------------------------------------------*/
FoamFile
{
    version     2.0;
    format      ascii;
    class       volScalarField;
    location    "800";
    object      alphat;
}
// * * * * * * * * * * * * * * * * * * * * * * * * * * * * * * * * * * * * * //

dimensions      [1 -1 -1 0 0 0 0];

internalField   nonuniform List<scalar> 
78750
(
3.96529e-08
1.40268e-05
1.7096e-05
2.16618e-05
2.84331e-05
3.42251e-05
3.65431e-05
3.50448e-05
3.11149e-05
2.6733e-05
2.46915e-05
2.36965e-05
2.34127e-05
2.35761e-05
2.38723e-05
2.46137e-05
2.54983e-05
2.62865e-05
2.72511e-05
2.83147e-05
2.97859e-05
2.962e-05
2.99714e-05
3.28849e-05
3.36577e-05
3.30703e-05
3.31772e-05
3.25442e-05
3.0961e-05
2.84859e-05
2.67317e-05
2.40995e-05
2.00003e-05
1.48062e-05
7.45653e-08
1.9573e-08
7.82424e-06
2.49001e-05
2.243e-05
1.49231e-05
1.63501e-05
1.95711e-05
1.99023e-05
2.16563e-05
2.62391e-05
3.68749e-05
4.73301e-05
5.04555e-05
5.33528e-05
5.22197e-05
4.96868e-05
5.21535e-05
5.45928e-05
5.76828e-05
6.20005e-05
6.59557e-05
7.14548e-05
7.59728e-05
7.61373e-05
7.35661e-05
6.91341e-05
6.16254e-05
4.64025e-05
4.62153e-05
4.4118e-05
3.25047e-05
2.48519e-05
1.88716e-05
1.97132e-05
2.017e-07
1.30045e-08
6.70134e-06
9.27314e-06
1.1033e-05
1.37591e-05
1.78728e-05
2.29755e-05
3.06859e-05
4.364e-05
5.88456e-05
6.98812e-05
7.33529e-05
7.599e-05
7.93339e-05
8.15625e-05
8.32268e-05
8.44696e-05
8.72175e-05
8.90277e-05
8.77783e-05
8.51762e-05
8.09708e-05
7.62146e-05
7.33788e-05
6.93979e-05
6.01698e-05
4.66146e-05
4.79226e-05
4.56088e-05
3.43628e-05
2.69456e-05
1.93938e-05
1.71547e-05
2.86079e-05
2.83085e-07
1.7039e-08
5.66046e-06
1.05119e-05
1.71351e-05
2.6901e-05
4.06019e-05
5.65052e-05
7.14913e-05
8.18651e-05
8.54125e-05
8.8046e-05
9.09905e-05
9.22793e-05
9.34719e-05
9.52181e-05
9.6605e-05
9.69084e-05
9.57228e-05
9.31773e-05
8.96096e-05
8.52169e-05
8.01552e-05
7.50199e-05
7.01992e-05
6.19599e-05
4.9813e-05
5.06907e-05
4.82116e-05
3.76978e-05
3.06277e-05
2.22026e-05
1.59981e-05
1.61868e-05
3.24323e-05
3.36381e-07
4.30529e-08
5.36521e-06
1.31528e-05
2.72106e-05
4.65965e-05
6.17507e-05
7.05032e-05
7.47091e-05
7.64951e-05
7.1319e-05
6.83298e-05
7.366e-05
7.99519e-05
8.62154e-05
9.28604e-05
9.89182e-05
0.000103124
0.000104649
0.000103636
0.000100758
9.72706e-05
9.30752e-05
8.65587e-05
7.68563e-05
6.47752e-05
5.41327e-05
5.46727e-05
4.87111e-05
3.56661e-05
2.70108e-05
1.86676e-05
1.38117e-05
1.57368e-05
2.87876e-05
3.55142e-07
8.6775e-08
6.24427e-06
1.79483e-05
4.13274e-05
6.49413e-05
7.53193e-05
7.61726e-05
6.94189e-05
6.16088e-05
5.77423e-05
5.8157e-05
6.28395e-05
7.26424e-05
8.49241e-05
9.70255e-05
0.000105373
0.000108944
0.000108116
0.000104621
0.000102021
0.000100697
9.74098e-05
9.07272e-05
8.03097e-05
6.85407e-05
6.5222e-05
5.89508e-05
4.59255e-05
3.45295e-05
2.40416e-05
1.62014e-05
1.26556e-05
1.58236e-05
2.22661e-05
3.5788e-07
1.32627e-07
7.08634e-06
2.20005e-05
5.09496e-05
7.02459e-05
7.41421e-05
6.9962e-05
6.19693e-05
5.37498e-05
4.9229e-05
4.95272e-05
5.47617e-05
6.56746e-05
8.18102e-05
9.79396e-05
0.000108666
0.000112988
0.00011237
0.000108993
0.000105951
0.000104146
0.000100984
9.44703e-05
8.51601e-05
7.59756e-05
7.2041e-05
6.14489e-05
4.5644e-05
3.27945e-05
2.20309e-05
1.47322e-05
1.19707e-05
1.59697e-05
1.86603e-05
3.57101e-07
1.66538e-07
7.28708e-06
2.27862e-05
5.2839e-05
7.08542e-05
7.19985e-05
6.53691e-05
5.64219e-05
4.89753e-05
4.46442e-05
4.3991e-05
4.81067e-05
5.79824e-05
7.1695e-05
8.59308e-05
9.89498e-05
0.000106248
0.000108104
0.00010676
0.000105265
0.000104396
0.000102054
9.72273e-05
9.03427e-05
8.43014e-05
7.96953e-05
6.55981e-05
4.79499e-05
3.33655e-05
2.14697e-05
1.40949e-05
1.17559e-05
1.63878e-05
1.5864e-05
3.59498e-07
1.90546e-07
7.63862e-06
2.4174e-05
5.40982e-05
6.95546e-05
7.06847e-05
6.58225e-05
5.88039e-05
5.20592e-05
4.67196e-05
4.33913e-05
4.2981e-05
4.70335e-05
5.72927e-05
7.24428e-05
8.7784e-05
0.000100333
0.000107902
0.000109693
0.000108751
0.000107602
0.000105771
0.000101685
9.65521e-05
9.36452e-05
8.35934e-05
6.685e-05
5.06198e-05
3.47662e-05
2.19077e-05
1.41184e-05
1.17677e-05
1.69784e-05
1.41754e-05
3.66697e-07
2.04769e-07
7.49131e-06
2.3038e-05
5.14748e-05
6.80719e-05
7.00247e-05
6.58455e-05
5.94696e-05
5.33709e-05
4.84332e-05
4.47237e-05
4.22987e-05
4.18504e-05
4.48923e-05
5.34703e-05
6.81096e-05
8.40121e-05
9.54611e-05
0.000102876
0.0001055
0.000105663
0.000104796
0.00010273
9.92945e-05
9.68881e-05
8.53903e-05
6.77323e-05
5.15399e-05
3.56339e-05
2.25174e-05
1.44605e-05
1.21147e-05
1.78356e-05
1.30177e-05
3.77072e-07
2.09983e-07
7.5909e-06
2.29957e-05
5.02947e-05
6.73623e-05
7.1032e-05
6.87833e-05
6.38977e-05
5.84207e-05
5.33489e-05
4.9024e-05
4.54952e-05
4.2872e-05
4.17234e-05
4.3214e-05
4.90242e-05
6.07595e-05
7.61937e-05
8.90573e-05
9.70347e-05
0.000101018
0.000101854
0.000101329
0.000102445
9.62061e-05
8.20849e-05
6.74696e-05
5.14832e-05
3.58139e-05
2.29238e-05
1.49063e-05
1.26799e-05
1.91469e-05
1.21696e-05
3.88583e-07
2.10413e-07
7.41895e-06
2.1864e-05
4.82884e-05
6.70777e-05
7.23164e-05
7.12192e-05
6.71784e-05
6.21393e-05
5.72146e-05
5.27773e-05
4.88975e-05
4.55404e-05
4.27629e-05
4.09428e-05
4.08541e-05
4.38512e-05
5.15401e-05
6.41977e-05
7.77294e-05
8.75091e-05
9.28306e-05
9.65099e-05
9.94058e-05
9.20525e-05
7.86637e-05
6.53014e-05
5.04466e-05
3.55173e-05
2.31248e-05
1.53718e-05
1.3368e-05
2.07208e-05
1.16125e-05
4.0171e-07
2.06951e-07
7.34828e-06
2.16383e-05
4.75081e-05
6.69487e-05
7.37231e-05
7.43658e-05
7.17693e-05
6.74341e-05
6.24503e-05
5.7485e-05
5.29441e-05
4.89824e-05
4.55725e-05
4.26826e-05
4.04901e-05
3.94221e-05
4.03826e-05
4.47139e-05
5.35301e-05
6.54862e-05
7.73064e-05
9.01077e-05
9.30269e-05
8.38558e-05
7.41303e-05
6.21563e-05
4.84657e-05
3.4695e-05
2.30921e-05
1.57864e-05
1.41669e-05
2.26389e-05
1.12126e-05
4.17527e-07
2.06423e-07
7.10118e-06
2.05635e-05
4.61193e-05
6.70276e-05
7.47595e-05
7.60061e-05
7.38727e-05
6.99723e-05
6.53187e-05
6.05673e-05
5.60495e-05
5.19444e-05
4.82851e-05
4.50362e-05
4.21862e-05
3.9836e-05
3.82345e-05
3.79587e-05
3.99787e-05
4.55878e-05
5.60966e-05
7.35517e-05
8.24787e-05
7.58744e-05
6.8822e-05
5.88462e-05
4.64718e-05
3.36334e-05
2.29178e-05
1.61638e-05
1.50377e-05
2.47732e-05
1.09569e-05
4.36207e-07
2.13399e-07
6.91645e-06
2.0089e-05
4.56935e-05
6.70835e-05
7.53331e-05
7.73007e-05
7.58035e-05
7.22759e-05
6.77442e-05
6.30687e-05
5.86799e-05
5.48123e-05
5.14002e-05
4.82389e-05
4.51761e-05
4.2252e-05
3.95881e-05
3.74107e-05
3.61751e-05
3.67591e-05
4.11305e-05
5.45284e-05
6.76276e-05
6.61545e-05
6.26978e-05
5.48317e-05
4.41345e-05
3.25589e-05
2.25676e-05
1.64605e-05
1.59741e-05
2.72018e-05
1.07279e-05
4.56725e-07
2.37355e-07
6.81337e-06
1.97913e-05
4.56298e-05
6.7504e-05
7.57109e-05
7.76058e-05
7.59041e-05
7.21806e-05
6.7594e-05
6.31413e-05
5.92835e-05
5.62157e-05
5.37368e-05
5.14285e-05
4.88817e-05
4.59338e-05
4.26801e-05
3.9331e-05
3.62227e-05
3.40049e-05
3.44206e-05
4.28049e-05
5.35826e-05
5.50046e-05
5.54388e-05
5.05153e-05
4.14799e-05
3.11068e-05
2.21665e-05
1.67496e-05
1.69899e-05
2.98426e-05
1.04621e-05
4.73975e-07
2.70744e-07
6.85167e-06
1.99727e-05
4.6368e-05
6.79261e-05
7.5822e-05
7.74655e-05
7.54301e-05
7.15016e-05
6.69663e-05
6.28683e-05
5.97198e-05
5.75992e-05
5.61607e-05
5.48555e-05
5.30886e-05
5.0453e-05
4.68965e-05
4.25897e-05
3.79666e-05
3.3825e-05
3.18739e-05
3.65757e-05
4.34872e-05
4.50954e-05
4.71846e-05
4.49121e-05
3.80118e-05
2.92238e-05
2.14116e-05
1.68638e-05
1.80695e-05
3.27771e-05
1.00905e-05
4.81329e-07
3.06723e-07
7.00786e-06
2.03305e-05
4.5516e-05
6.76034e-05
7.59537e-05
7.69684e-05
7.44611e-05
7.04496e-05
6.63811e-05
6.31135e-05
6.0931e-05
5.97007e-05
5.90076e-05
5.8306e-05
5.70253e-05
5.46359e-05
5.09154e-05
4.59716e-05
4.03421e-05
3.50358e-05
3.16315e-05
3.31087e-05
3.61937e-05
3.75546e-05
3.96211e-05
3.86881e-05
3.39615e-05
2.69286e-05
2.04197e-05
1.68676e-05
1.91437e-05
3.55581e-05
9.75444e-06
4.80401e-07
3.17884e-07
7.07938e-06
2.04364e-05
4.52208e-05
6.63526e-05
7.55275e-05
7.70637e-05
7.4841e-05
7.14629e-05
6.81859e-05
6.55981e-05
6.37621e-05
6.25627e-05
6.17898e-05
6.10846e-05
5.99521e-05
5.78468e-05
5.43784e-05
4.95112e-05
4.36655e-05
3.77615e-05
3.31142e-05
3.16563e-05
3.2109e-05
3.2202e-05
3.30996e-05
3.30657e-05
2.97308e-05
2.44509e-05
1.93689e-05
1.68647e-05
2.02981e-05
3.77526e-05
9.39796e-06
4.72371e-07
3.15833e-07
6.99803e-06
2.01969e-05
4.44167e-05
6.48827e-05
7.41999e-05
7.71773e-05
7.65741e-05
7.43192e-05
7.15961e-05
6.88944e-05
6.65659e-05
6.46965e-05
6.33144e-05
6.2291e-05
6.12767e-05
5.97708e-05
5.72321e-05
5.33157e-05
4.80678e-05
4.20422e-05
3.61791e-05
3.1653e-05
3.03751e-05
2.97695e-05
2.87751e-05
2.83701e-05
2.60909e-05
2.20787e-05
1.82561e-05
1.6847e-05
2.13653e-05
3.88401e-05
9.17371e-06
4.68144e-07
2.88118e-07
6.71026e-06
1.88007e-05
4.08104e-05
6.17715e-05
7.22504e-05
7.61964e-05
7.69705e-05
7.59469e-05
7.3904e-05
7.13562e-05
6.86438e-05
6.61669e-05
6.41119e-05
6.25547e-05
6.13925e-05
6.02714e-05
5.86485e-05
5.59397e-05
5.17368e-05
4.60686e-05
3.9627e-05
3.38127e-05
3.11685e-05
2.85656e-05
2.58269e-05
2.50557e-05
2.33133e-05
2.02603e-05
1.74047e-05
1.68683e-05
2.2358e-05
3.91459e-05
9.00289e-06
4.70182e-07
2.54712e-07
6.53017e-06
1.75072e-05
3.73833e-05
5.87558e-05
7.08679e-05
7.61564e-05
7.75937e-05
7.68889e-05
7.50288e-05
7.25611e-05
6.97929e-05
6.6982e-05
6.45002e-05
6.24352e-05
6.08283e-05
5.95695e-05
5.83714e-05
5.6704e-05
5.39308e-05
4.95086e-05
4.35534e-05
3.72345e-05
3.19313e-05
2.94672e-05
2.58355e-05
2.23038e-05
2.08515e-05
1.87237e-05
1.6632e-05
1.67818e-05
2.29982e-05
3.88767e-05
8.92164e-06
4.82935e-07
2.30606e-07
6.36077e-06
1.68928e-05
3.624e-05
5.79897e-05
7.13424e-05
7.75855e-05
7.96352e-05
7.92209e-05
7.73741e-05
7.49275e-05
7.23044e-05
6.93169e-05
6.62769e-05
6.38817e-05
6.19014e-05
6.00523e-05
5.82191e-05
5.6573e-05
5.48347e-05
5.20129e-05
4.73555e-05
4.0724e-05
3.36549e-05
3.11139e-05
2.70144e-05
2.16236e-05
1.9345e-05
1.74565e-05
1.603e-05
1.67547e-05
2.35592e-05
3.85458e-05
8.89959e-06
5.03719e-07
2.27502e-07
6.27646e-06
1.64252e-05
3.48844e-05
5.69293e-05
7.21094e-05
7.96575e-05
8.26673e-05
8.27558e-05
8.05597e-05
7.65597e-05
7.15989e-05
6.87601e-05
6.76852e-05
6.69873e-05
6.63715e-05
6.56527e-05
6.41976e-05
6.16769e-05
5.84174e-05
5.46822e-05
4.96529e-05
4.27585e-05
3.58591e-05
3.40522e-05
2.91229e-05
2.20634e-05
1.88512e-05
1.67421e-05
1.55289e-05
1.66328e-05
2.3768e-05
3.81288e-05
8.90871e-06
5.37139e-07
2.4124e-07
6.30982e-06
1.66027e-05
3.59272e-05
5.91784e-05
7.42173e-05
8.14869e-05
8.43265e-05
8.3156e-05
7.83619e-05
7.3784e-05
7.20075e-05
7.07323e-05
7.02884e-05
7.0437e-05
7.05073e-05
7.00191e-05
6.89478e-05
6.69343e-05
6.37808e-05
5.95188e-05
5.37474e-05
4.62174e-05
3.85074e-05
3.62623e-05
3.05986e-05
2.25551e-05
1.86099e-05
1.62227e-05
1.51441e-05
1.65651e-05
2.41365e-05
3.81372e-05
8.8672e-06
5.6938e-07
2.79243e-07
6.3638e-06
1.71351e-05
3.84852e-05
6.26171e-05
7.57533e-05
8.13734e-05
8.19037e-05
7.72968e-05
7.36012e-05
7.11781e-05
6.93781e-05
6.97103e-05
7.18424e-05
7.48916e-05
7.758e-05
7.88662e-05
7.83798e-05
7.59945e-05
7.20165e-05
6.68005e-05
5.99698e-05
5.10069e-05
4.1983e-05
3.89519e-05
3.22981e-05
2.32883e-05
1.86255e-05
1.59024e-05
1.48377e-05
1.6519e-05
2.45782e-05
3.81305e-05
8.77586e-06
5.93887e-07
3.49052e-07
6.69395e-06
1.8488e-05
4.22122e-05
6.60366e-05
7.59701e-05
7.72293e-05
7.43482e-05
7.21912e-05
6.83303e-05
6.48096e-05
6.42032e-05
6.69672e-05
7.24742e-05
7.91217e-05
8.5119e-05
8.90868e-05
9.0354e-05
8.88128e-05
8.4404e-05
7.82663e-05
6.99828e-05
5.90659e-05
4.7808e-05
4.19299e-05
3.31918e-05
2.37286e-05
1.86426e-05
1.57471e-05
1.46896e-05
1.65928e-05
2.5281e-05
3.82766e-05
8.55881e-06
6.03935e-07
4.54239e-07
7.21844e-06
2.12659e-05
4.96029e-05
6.94907e-05
7.53424e-05
7.57173e-05
7.23026e-05
6.62127e-05
6.08525e-05
5.9082e-05
6.15746e-05
6.78845e-05
7.66395e-05
8.58259e-05
9.34727e-05
9.81075e-05
9.92456e-05
9.69629e-05
9.18291e-05
8.59798e-05
7.9119e-05
6.91318e-05
5.75792e-05
4.72206e-05
3.45877e-05
2.40272e-05
1.82707e-05
1.52993e-05
1.44664e-05
1.68193e-05
2.65382e-05
3.78199e-05
8.38158e-06
5.98607e-07
5.32728e-07
7.66136e-06
2.30795e-05
5.16735e-05
7.08544e-05
7.52362e-05
7.09133e-05
6.33514e-05
5.80517e-05
5.6516e-05
5.75144e-05
6.1237e-05
6.74615e-05
7.58473e-05
8.56223e-05
9.40194e-05
9.94053e-05
0.00010114
9.93058e-05
9.46797e-05
8.99618e-05
8.50311e-05
7.70018e-05
6.61495e-05
5.17251e-05
3.67186e-05
2.50542e-05
1.80263e-05
1.49002e-05
1.43511e-05
1.71524e-05
2.80669e-05
3.6898e-05
8.00276e-06
5.64076e-07
5.34764e-07
7.74598e-06
2.3969e-05
5.46227e-05
6.99547e-05
7.01184e-05
6.69775e-05
6.52525e-05
6.26974e-05
5.99507e-05
5.87854e-05
5.91193e-05
6.12256e-05
6.53502e-05
7.15123e-05
7.93083e-05
8.78396e-05
9.3889e-05
9.5459e-05
9.37611e-05
9.11687e-05
8.79308e-05
8.17214e-05
7.22547e-05
5.57413e-05
3.82562e-05
2.59849e-05
1.84779e-05
1.47727e-05
1.42088e-05
1.76852e-05
3.02488e-05
3.51911e-05
7.74384e-06
5.29092e-07
5.02442e-07
7.64637e-06
2.41108e-05
5.20298e-05
6.67009e-05
7.1113e-05
7.19807e-05
6.95724e-05
6.59964e-05
6.30207e-05
6.08015e-05
5.92074e-05
5.83783e-05
5.86517e-05
6.06235e-05
6.47178e-05
7.02416e-05
7.66748e-05
8.34275e-05
8.7921e-05
8.84425e-05
8.718e-05
8.30851e-05
7.44009e-05
5.77339e-05
4.00828e-05
2.73899e-05
1.93344e-05
1.5198e-05
1.45818e-05
1.86106e-05
3.2429e-05
3.37757e-05
7.53585e-06
5.02196e-07
4.45085e-07
7.42266e-06
2.22824e-05
4.77529e-05
6.42598e-05
6.99719e-05
7.06789e-05
6.95784e-05
6.80683e-05
6.622e-05
6.40273e-05
6.14044e-05
5.85467e-05
5.58976e-05
5.40389e-05
5.36423e-05
5.50724e-05
5.86302e-05
6.38888e-05
7.00567e-05
7.5814e-05
7.96662e-05
7.87247e-05
7.11883e-05
5.67451e-05
4.09384e-05
2.86448e-05
2.04149e-05
1.59797e-05
1.52917e-05
1.98143e-05
3.46396e-05
3.30696e-05
7.51743e-06
4.95314e-07
3.91018e-07
7.07781e-06
2.06886e-05
4.49877e-05
6.316e-05
6.99301e-05
7.12328e-05
7.00303e-05
6.87032e-05
6.69899e-05
6.50297e-05
6.30398e-05
6.08919e-05
5.84139e-05
5.54618e-05
5.22216e-05
4.93362e-05
4.76288e-05
4.80164e-05
5.09607e-05
5.59709e-05
6.18701e-05
6.59414e-05
6.31089e-05
5.40202e-05
4.1231e-05
2.9536e-05
2.15654e-05
1.69633e-05
1.6161e-05
2.09751e-05
3.63418e-05
3.29421e-05
7.5391e-06
4.99054e-07
3.66496e-07
6.97845e-06
2.00556e-05
4.39134e-05
6.36389e-05
7.20237e-05
7.46242e-05
7.43345e-05
7.29902e-05
7.08081e-05
6.8147e-05
6.52356e-05
6.24066e-05
5.98368e-05
5.74083e-05
5.47539e-05
5.155e-05
4.78259e-05
4.42114e-05
4.18409e-05
4.15234e-05
4.36654e-05
4.76727e-05
5.16493e-05
4.85069e-05
3.91425e-05
3.01231e-05
2.258e-05
1.80045e-05
1.71458e-05
2.2147e-05
3.76976e-05
3.33973e-05
7.68519e-06
5.19022e-07
3.53002e-07
6.80277e-06
1.93977e-05
4.27317e-05
6.33799e-05
7.29686e-05
7.67145e-05
7.84707e-05
7.83612e-05
7.70821e-05
7.49186e-05
7.2073e-05
6.87225e-05
6.50296e-05
6.12454e-05
5.75646e-05
5.39892e-05
5.025e-05
4.60989e-05
4.17488e-05
3.78469e-05
3.52273e-05
3.47477e-05
3.85787e-05
3.99853e-05
3.50502e-05
2.9185e-05
2.32013e-05
1.89922e-05
1.81934e-05
2.33283e-05
3.88549e-05
3.40689e-05
7.83826e-06
5.41952e-07
3.3824e-07
6.59521e-06
1.86401e-05
4.12842e-05
6.20029e-05
7.26864e-05
7.78403e-05
7.98801e-05
8.00023e-05
7.90958e-05
7.76275e-05
7.57958e-05
7.36218e-05
7.10024e-05
6.77874e-05
6.39235e-05
5.94437e-05
5.45033e-05
4.92509e-05
4.37921e-05
3.8296e-05
3.32481e-05
2.98385e-05
3.09619e-05
3.19889e-05
2.97075e-05
2.71578e-05
2.30189e-05
1.95691e-05
1.91671e-05
2.45809e-05
4.00245e-05
3.47443e-05
7.98057e-06
5.6324e-07
3.37464e-07
6.52585e-06
1.82182e-05
4.02302e-05
6.18684e-05
7.34898e-05
7.87634e-05
8.07435e-05
8.08239e-05
7.97472e-05
7.82128e-05
7.65023e-05
7.47594e-05
7.30401e-05
7.11309e-05
6.86561e-05
6.51373e-05
6.04029e-05
5.44338e-05
4.74687e-05
4.01819e-05
3.33772e-05
2.83271e-05
2.77904e-05
2.7272e-05
2.52681e-05
2.44289e-05
2.22629e-05
2.00259e-05
2.00852e-05
2.58112e-05
4.11643e-05
3.53853e-05
8.11347e-06
5.81821e-07
3.43657e-07
6.47767e-06
1.81702e-05
4.05159e-05
6.25578e-05
7.45153e-05
8.00926e-05
8.20615e-05
8.19794e-05
8.11635e-05
7.98583e-05
7.82931e-05
7.66448e-05
7.50485e-05
7.34762e-05
7.1761e-05
6.94456e-05
6.56719e-05
5.97569e-05
5.20485e-05
4.33926e-05
3.48979e-05
2.83696e-05
2.64065e-05
2.45861e-05
2.23256e-05
2.19731e-05
2.11579e-05
2.00878e-05
2.08706e-05
2.70227e-05
4.23405e-05
3.58994e-05
8.21409e-06
5.96751e-07
3.61524e-07
6.58313e-06
1.87246e-05
4.19106e-05
6.37799e-05
7.54972e-05
8.11549e-05
8.34271e-05
8.3534e-05
8.27058e-05
8.12994e-05
7.96693e-05
7.80554e-05
7.66016e-05
7.53047e-05
7.39362e-05
7.21521e-05
6.93856e-05
6.48396e-05
5.73574e-05
4.73836e-05
3.73276e-05
2.93107e-05
2.59152e-05
2.31218e-05
2.03863e-05
1.99894e-05
1.99695e-05
1.98907e-05
2.13761e-05
2.80256e-05
4.34111e-05
3.63388e-05
8.30452e-06
6.09214e-07
3.78325e-07
6.62467e-06
1.90776e-05
4.30426e-05
6.47153e-05
7.60222e-05
8.15223e-05
8.38518e-05
8.43403e-05
8.35503e-05
8.21908e-05
8.0701e-05
7.93578e-05
7.83085e-05
7.75209e-05
7.66697e-05
7.52886e-05
7.27783e-05
6.84597e-05
6.17669e-05
5.24227e-05
4.11238e-05
3.10856e-05
2.5837e-05
2.24128e-05
1.93132e-05
1.84513e-05
1.8873e-05
1.95707e-05
2.1855e-05
2.91187e-05
4.47149e-05
3.63418e-05
8.33647e-06
6.15997e-07
3.96869e-07
6.73187e-06
1.95584e-05
4.4262e-05
6.58763e-05
7.65275e-05
8.18644e-05
8.41365e-05
8.46007e-05
8.40057e-05
8.29438e-05
8.18265e-05
8.09284e-05
8.04174e-05
8.02772e-05
8.02093e-05
7.96368e-05
7.77323e-05
7.35852e-05
6.6743e-05
5.72427e-05
4.59056e-05
3.45748e-05
2.58317e-05
2.16774e-05
1.88619e-05
1.72939e-05
1.78565e-05
1.91819e-05
2.22585e-05
3.04797e-05
4.65138e-05
3.57756e-05
8.32662e-06
6.1614e-07
4.18246e-07
6.86801e-06
2.02749e-05
4.5865e-05
6.64737e-05
7.67705e-05
8.18967e-05
8.4132e-05
8.47716e-05
8.45083e-05
8.38544e-05
8.31201e-05
8.25096e-05
8.21914e-05
8.22398e-05
8.24715e-05
8.23685e-05
8.106e-05
7.75417e-05
7.14521e-05
6.25106e-05
5.0468e-05
3.75136e-05
2.68999e-05
2.12021e-05
1.79385e-05
1.64924e-05
1.72176e-05
1.91244e-05
2.31027e-05
3.25498e-05
4.86297e-05
3.48402e-05
8.23547e-06
6.03202e-07
4.33502e-07
6.97345e-06
2.07505e-05
4.64356e-05
6.70546e-05
7.67783e-05
8.13006e-05
8.32105e-05
8.40427e-05
8.43515e-05
8.43652e-05
8.42561e-05
8.41018e-05
8.40085e-05
8.40459e-05
8.41043e-05
8.38029e-05
8.24058e-05
7.90538e-05
7.35997e-05
6.56265e-05
5.40517e-05
4.04479e-05
2.85444e-05
2.11653e-05
1.73141e-05
1.5963e-05
1.6722e-05
1.90183e-05
2.38684e-05
3.44167e-05
5.03153e-05
3.38695e-05
8.15174e-06
5.84854e-07
4.37111e-07
7.00284e-06
2.10027e-05
4.76328e-05
6.74263e-05
7.61028e-05
8.01314e-05
8.20229e-05
8.30585e-05
8.38292e-05
8.45066e-05
8.50184e-05
8.53314e-05
8.54692e-05
8.54869e-05
8.53471e-05
8.47734e-05
8.31619e-05
7.97965e-05
7.46343e-05
6.72662e-05
5.6372e-05
4.29434e-05
3.03924e-05
2.18015e-05
1.7199e-05
1.5639e-05
1.6344e-05
1.88584e-05
2.42302e-05
3.55282e-05
5.13599e-05
3.30647e-05
8.07302e-06
5.70691e-07
4.36822e-07
7.03839e-06
2.13707e-05
4.83293e-05
6.7439e-05
7.55623e-05
7.92216e-05
8.10151e-05
8.22911e-05
8.34605e-05
8.47496e-05
8.59106e-05
8.67762e-05
8.72668e-05
8.73976e-05
8.71655e-05
8.63486e-05
8.44624e-05
8.09297e-05
7.58147e-05
6.87973e-05
5.84562e-05
4.5217e-05
3.21504e-05
2.25906e-05
1.73355e-05
1.54921e-05
1.60046e-05
1.85472e-05
2.4264e-05
3.62967e-05
5.20797e-05
3.22909e-05
8.02298e-06
5.62502e-07
4.32731e-07
7.0125e-06
2.13842e-05
4.84733e-05
6.71268e-05
7.47197e-05
7.79205e-05
7.94831e-05
8.08491e-05
8.2448e-05
8.42808e-05
8.61263e-05
8.76824e-05
8.87712e-05
8.93346e-05
8.93326e-05
8.85653e-05
8.664e-05
8.3028e-05
7.78158e-05
7.08207e-05
6.08104e-05
4.79717e-05
3.47055e-05
2.44122e-05
1.80216e-05
1.53921e-05
1.56142e-05
1.81408e-05
2.40345e-05
3.6234e-05
5.21459e-05
3.21312e-05
8.03394e-06
5.6311e-07
4.32642e-07
7.00843e-06
2.13749e-05
4.86367e-05
6.68191e-05
7.36469e-05
7.6179e-05
7.74547e-05
7.88417e-05
8.08661e-05
8.34531e-05
8.62659e-05
8.87183e-05
9.05467e-05
9.16342e-05
9.19473e-05
9.13357e-05
8.94599e-05
8.58333e-05
8.05127e-05
7.33535e-05
6.32911e-05
5.06525e-05
3.76346e-05
2.74883e-05
1.99039e-05
1.57704e-05
1.52668e-05
1.75397e-05
2.33468e-05
3.5574e-05
5.19676e-05
3.21214e-05
8.05164e-06
5.74319e-07
4.36246e-07
7.01916e-06
2.15237e-05
4.88776e-05
6.64163e-05
7.24285e-05
7.42019e-05
7.50278e-05
7.64574e-05
7.89946e-05
8.24094e-05
8.6195e-05
8.98331e-05
9.26637e-05
9.44866e-05
9.52636e-05
9.49102e-05
9.31332e-05
8.94747e-05
8.39639e-05
7.64744e-05
6.60063e-05
5.30974e-05
4.00944e-05
3.02817e-05
2.18956e-05
1.65806e-05
1.53419e-05
1.71634e-05
2.26993e-05
3.52079e-05
5.20973e-05
3.24372e-05
8.12379e-06
5.93225e-07
4.42449e-07
7.05257e-06
2.16998e-05
4.91387e-05
6.58824e-05
7.09917e-05
7.1946e-05
7.22261e-05
7.36006e-05
7.66472e-05
8.10304e-05
8.59509e-05
9.06425e-05
9.45521e-05
9.72777e-05
9.87175e-05
9.88106e-05
9.72555e-05
9.36665e-05
8.80011e-05
8.00225e-05
6.85043e-05
5.46325e-05
4.30728e-05
3.30344e-05
2.34652e-05
1.75171e-05
1.55205e-05
1.68419e-05
2.23567e-05
3.52783e-05
5.26619e-05
3.17598e-05
8.06964e-06
5.99899e-07
4.47622e-07
7.08303e-06
2.18308e-05
4.92246e-05
6.52202e-05
6.94095e-05
6.94598e-05
6.90765e-05
7.02637e-05
7.36851e-05
7.8948e-05
8.50637e-05
9.09943e-05
9.61229e-05
9.99906e-05
0.000102338
0.000103089
0.00010198
9.86382e-05
9.29124e-05
8.45025e-05
7.20592e-05
5.68812e-05
4.39419e-05
3.27099e-05
2.37517e-05
1.82189e-05
1.59689e-05
1.71734e-05
2.32146e-05
3.77521e-05
5.39954e-05
3.06762e-05
7.9986e-06
5.9598e-07
4.52264e-07
7.11728e-06
2.19307e-05
4.92249e-05
6.448e-05
6.77385e-05
6.68257e-05
6.5705e-05
6.66153e-05
7.02807e-05
7.62632e-05
8.34623e-05
9.06636e-05
9.69481e-05
0.000101942
0.000105252
0.000106725
0.000106135
0.000103109
9.7418e-05
8.87716e-05
7.55426e-05
5.84945e-05
4.22099e-05
3.02787e-05
2.27448e-05
1.83408e-05
1.67049e-05
1.84144e-05
2.54865e-05
4.09251e-05
5.4528e-05
2.9436e-05
7.85656e-06
5.67161e-07
4.5284e-07
7.13366e-06
2.1997e-05
4.92242e-05
6.37961e-05
6.61267e-05
6.42618e-05
6.23669e-05
6.28563e-05
6.65136e-05
7.29204e-05
8.09279e-05
8.91785e-05
9.65503e-05
0.000102384
0.000106547
0.00010868
0.000108591
0.000105917
0.00010039
9.17249e-05
7.80761e-05
6.07186e-05
4.18951e-05
2.86024e-05
2.16651e-05
1.8287e-05
1.73604e-05
1.94652e-05
2.67069e-05
4.21213e-05
5.45621e-05
2.87198e-05
7.71955e-06
5.38882e-07
4.49041e-07
7.12681e-06
2.20059e-05
4.91205e-05
6.30605e-05
6.45938e-05
6.19397e-05
5.93353e-05
5.92374e-05
6.25073e-05
6.88859e-05
7.73399e-05
8.64445e-05
9.48618e-05
0.000101686
0.000106525
0.000109422
0.000109946
0.000107781
0.00010276
9.50728e-05
8.28021e-05
6.59751e-05
4.50881e-05
2.96263e-05
2.15863e-05
1.79819e-05
1.73751e-05
1.97631e-05
2.70474e-05
4.16391e-05
5.42855e-05
2.91586e-05
7.75986e-06
5.3131e-07
4.40603e-07
7.09047e-06
2.19365e-05
4.89754e-05
6.23856e-05
6.33103e-05
6.00894e-05
5.69028e-05
5.60893e-05
5.85988e-05
6.44254e-05
7.28172e-05
8.24455e-05
9.18153e-05
9.97494e-05
0.000105605
0.000109199
0.000110591
0.000109127
0.000104705
9.81785e-05
8.80777e-05
7.25778e-05
5.16946e-05
3.36846e-05
2.29977e-05
1.819e-05
1.72209e-05
1.93938e-05
2.57634e-05
3.92077e-05
5.37529e-05
2.96441e-05
7.80503e-06
5.35941e-07
4.33396e-07
7.0529e-06
2.18886e-05
4.8814e-05
6.18627e-05
6.24538e-05
5.89344e-05
5.5284e-05
5.37069e-05
5.52524e-05
6.01531e-05
6.80189e-05
7.77987e-05
8.79699e-05
9.7105e-05
0.00010429
0.000109133
0.000111372
0.000110816
0.000107083
0.000101356
9.3316e-05
7.99367e-05
6.25301e-05
4.33702e-05
2.83394e-05
1.99025e-05
1.71763e-05
1.81579e-05
2.33772e-05
3.61981e-05
5.26447e-05
3.18525e-05
8.02814e-06
5.76681e-07
4.31414e-07
7.04582e-06
2.19368e-05
4.87661e-05
6.15103e-05
6.20279e-05
5.8442e-05
5.448e-05
5.21744e-05
5.25853e-05
5.63824e-05
6.34661e-05
7.29762e-05
8.37195e-05
9.40301e-05
0.000102688
0.000109051
0.00011267
0.000112894
0.000109295
0.000103355
9.61793e-05
8.83056e-05
7.31638e-05
5.35003e-05
3.63783e-05
2.44994e-05
1.83037e-05
1.72784e-05
2.15385e-05
3.32064e-05
5.06068e-05
3.44207e-05
8.28815e-06
6.34377e-07
4.33657e-07
7.061e-06
2.21294e-05
4.88106e-05
6.12758e-05
6.1913e-05
5.85046e-05
5.44667e-05
5.17512e-05
5.11724e-05
5.32669e-05
5.88682e-05
6.7967e-05
7.90341e-05
9.04777e-05
0.000100757
0.000108866
0.000114166
0.00011595
0.00011352
0.000107834
9.99167e-05
9.17881e-05
7.62451e-05
5.82559e-05
4.3169e-05
2.97601e-05
2.11419e-05
1.81891e-05
2.03548e-05
3.02474e-05
5.08694e-05
3.37203e-05
8.27151e-06
6.65642e-07
4.38761e-07
7.11603e-06
2.24177e-05
4.88264e-05
6.10525e-05
6.20331e-05
5.90302e-05
5.5105e-05
5.19391e-05
5.0455e-05
5.131e-05
5.51215e-05
6.27298e-05
7.36594e-05
8.59866e-05
9.79061e-05
0.000107948
0.000115179
0.000118797
0.000117809
0.000112129
0.000101784
8.95638e-05
7.22668e-05
5.55924e-05
4.27519e-05
3.1779e-05
2.3374e-05
1.93981e-05
2.18695e-05
3.48217e-05
5.45469e-05
3.18581e-05
8.19582e-06
6.63539e-07
4.39055e-07
7.15457e-06
2.25591e-05
4.87335e-05
6.0966e-05
6.24548e-05
5.99721e-05
5.62212e-05
5.26684e-05
5.02352e-05
4.97038e-05
5.17797e-05
5.7205e-05
6.68313e-05
7.94127e-05
9.25052e-05
0.000104217
0.000113138
0.000118224
0.000118399
0.00011301
0.000100758
8.30873e-05
6.46046e-05
4.97952e-05
3.87975e-05
3.01073e-05
2.40879e-05
2.20031e-05
2.64157e-05
4.10781e-05
5.5921e-05
2.97647e-05
7.96667e-06
6.07941e-07
4.34274e-07
7.17078e-06
2.26594e-05
4.86183e-05
6.09551e-05
6.29816e-05
6.10756e-05
5.76731e-05
5.39287e-05
5.06496e-05
4.88597e-05
4.93173e-05
5.24094e-05
5.91924e-05
7.05064e-05
8.40619e-05
9.67845e-05
0.000106929
0.000113195
0.000114663
0.000110889
9.74717e-05
7.68995e-05
5.82601e-05
4.46637e-05
3.53967e-05
2.90763e-05
2.51659e-05
2.49053e-05
3.08379e-05
4.62835e-05
5.69892e-05
2.84059e-05
7.78613e-06
5.58973e-07
4.23699e-07
7.16418e-06
2.26609e-05
4.84502e-05
6.09549e-05
6.35032e-05
6.22468e-05
5.94216e-05
5.59719e-05
5.23413e-05
4.90996e-05
4.74768e-05
4.86911e-05
5.29796e-05
6.09902e-05
7.33311e-05
8.72008e-05
9.86579e-05
0.000106353
0.000109098
0.000106716
9.40836e-05
7.46252e-05
5.66769e-05
4.29506e-05
3.38171e-05
2.84891e-05
2.60242e-05
2.68167e-05
3.36335e-05
4.84394e-05
5.73989e-05
2.8885e-05
7.82523e-06
5.46904e-07
4.07851e-07
7.11637e-06
2.25081e-05
4.81651e-05
6.10759e-05
6.42382e-05
6.36873e-05
6.15152e-05
5.85034e-05
5.506e-05
5.12202e-05
4.75903e-05
4.5779e-05
4.76321e-05
5.34442e-05
6.28357e-05
7.5542e-05
8.88465e-05
9.85437e-05
0.000103749
0.000102907
9.27242e-05
7.62508e-05
5.89949e-05
4.45266e-05
3.46245e-05
2.87595e-05
2.62477e-05
2.73554e-05
3.38132e-05
4.77552e-05
5.78838e-05
2.92614e-05
7.86305e-06
5.5155e-07
3.92483e-07
7.06606e-06
2.23592e-05
4.79693e-05
6.13662e-05
6.5149e-05
6.52941e-05
6.38403e-05
6.15735e-05
5.83693e-05
5.43798e-05
5.01361e-05
4.6287e-05
4.45266e-05
4.69753e-05
5.4118e-05
6.50698e-05
7.81761e-05
9.04661e-05
9.80412e-05
9.90521e-05
9.24681e-05
7.9439e-05
6.3306e-05
4.79616e-05
3.65715e-05
2.97153e-05
2.65121e-05
2.7e-05
3.3293e-05
4.74831e-05
5.82504e-05
3.10565e-05
8.09543e-06
5.81684e-07
3.78312e-07
7.00632e-06
2.21846e-05
4.77671e-05
6.16581e-05
6.60298e-05
6.68096e-05
6.59933e-05
6.43263e-05
6.1894e-05
5.8451e-05
5.38589e-05
4.88664e-05
4.4788e-05
4.33861e-05
4.67298e-05
5.50764e-05
6.73141e-05
8.06461e-05
9.11414e-05
9.61851e-05
9.25585e-05
8.12549e-05
6.68098e-05
5.18129e-05
3.89141e-05
3.06321e-05
2.68554e-05
2.71495e-05
3.29543e-05
4.5954e-05
5.80563e-05
3.22683e-05
8.24969e-06
6.09758e-07
3.6514e-07
6.94593e-06
2.20165e-05
4.76327e-05
6.20599e-05
6.70185e-05
6.83912e-05
6.81698e-05
6.71133e-05
6.5352e-05
6.27604e-05
5.86272e-05
5.30528e-05
4.73178e-05
4.317e-05
4.24411e-05
4.68503e-05
5.63304e-05
6.93378e-05
8.32188e-05
9.18123e-05
8.99742e-05
8.09861e-05
6.8128e-05
5.41807e-05
4.1924e-05
3.25263e-05
2.75723e-05
2.73236e-05
3.21685e-05
4.47222e-05
5.86805e-05
3.27435e-05
8.34792e-06
6.25495e-07
3.52961e-07
6.87022e-06
2.1814e-05
4.75416e-05
6.25245e-05
6.79983e-05
6.98574e-05
7.01419e-05
6.96652e-05
6.85231e-05
6.64293e-05
6.32914e-05
5.836e-05
5.18071e-05
4.55397e-05
4.16797e-05
4.18804e-05
4.74422e-05
5.81572e-05
7.24742e-05
8.3697e-05
8.58413e-05
8.02318e-05
6.84685e-05
5.45648e-05
4.22845e-05
3.36106e-05
2.85611e-05
2.76547e-05
3.29344e-05
4.68182e-05
5.95591e-05
3.24159e-05
8.39849e-06
6.24478e-07
3.41919e-07
6.79764e-06
2.16359e-05
4.75641e-05
6.30007e-05
6.88508e-05
7.10877e-05
7.17821e-05
7.1767e-05
7.12469e-05
6.99863e-05
6.7423e-05
6.32808e-05
5.71613e-05
4.97647e-05
4.33809e-05
4.02349e-05
4.16886e-05
4.86124e-05
6.08805e-05
7.35895e-05
7.96923e-05
7.78066e-05
6.81208e-05
5.49542e-05
4.2792e-05
3.397e-05
2.91635e-05
2.89348e-05
3.48129e-05
4.80324e-05
5.96827e-05
3.29344e-05
8.45977e-06
6.19967e-07
3.31737e-07
6.7134e-06
2.14618e-05
4.76293e-05
6.34009e-05
6.94765e-05
7.19679e-05
7.30181e-05
7.34707e-05
7.3483e-05
7.28366e-05
7.11518e-05
6.77902e-05
6.23816e-05
5.49892e-05
4.70714e-05
4.10805e-05
3.89721e-05
4.19415e-05
5.12082e-05
6.32183e-05
7.14121e-05
7.38714e-05
6.80417e-05
5.65383e-05
4.44213e-05
3.53517e-05
3.04148e-05
2.98151e-05
3.48313e-05
4.75426e-05
5.98711e-05
3.33385e-05
8.54525e-06
6.20523e-07
3.24043e-07
6.6392e-06
2.13693e-05
4.78772e-05
6.38324e-05
7.00134e-05
7.26795e-05
7.40415e-05
7.49488e-05
7.55201e-05
7.54954e-05
7.4478e-05
7.19571e-05
6.72747e-05
6.04214e-05
5.1899e-05
4.38795e-05
3.88112e-05
3.84342e-05
4.46584e-05
5.44855e-05
6.25096e-05
6.83327e-05
6.7294e-05
5.90992e-05
4.75672e-05
3.75843e-05
3.15529e-05
3.02684e-05
3.47762e-05
4.72447e-05
6.00509e-05
3.38038e-05
8.66532e-06
6.33264e-07
3.22226e-07
6.58771e-06
2.1439e-05
4.81966e-05
6.40834e-05
7.02382e-05
7.29803e-05
7.45845e-05
7.59325e-05
7.71293e-05
7.78994e-05
7.77433e-05
7.60388e-05
7.21848e-05
6.56916e-05
5.70754e-05
4.77148e-05
4.03108e-05
3.73063e-05
4.11766e-05
4.85465e-05
5.5099e-05
6.265e-05
6.569e-05
6.17482e-05
5.21591e-05
4.11052e-05
3.31606e-05
3.08463e-05
3.52539e-05
4.72739e-05
5.99485e-05
3.65585e-05
8.94859e-06
6.7178e-07
3.23373e-07