/*--------------------------------*- C++ -*----------------------------------*\
| =========                 |                                                 |
| \\      /  F ield         | OpenFOAM: The Open Source CFD Toolbox           |
|  \\    /   O peration     | Version:  2.0.x                                 |
|   \\  /    A nd           | Web:      www.OpenFOAM.org                      |
|    \\/     M anipulation  |                                                 |
\*---------------------------------------------------------------------------*/
FoamFile
{
    version     2.0;
    format      ascii;
    class       volScalarField;
    location    "800";
    object      k;
}
// * * * * * * * * * * * * * * * * * * * * * * * * * * * * * * * * * * * * * //

dimensions      [0 2 -2 0 0 0 0];

internalField   nonuniform List<scalar> 
78750
(
3.32722e-05
0.000225309
0.000316599
0.000359379
0.000381312
0.000397076
0.000414342
0.000434195
0.000455259
0.00047492
0.000492811
0.000508145
0.000521024
0.000531836
0.000540871
0.000548036
0.000553388
0.000557378
0.000560083
0.000561423
0.000561839
0.00056016
0.000559156
0.000556313
0.000552541
0.000548762
0.000544179
0.000537325
0.000528724
0.000519026
0.000507544
0.000493237
0.000469095
0.000387457
6.96892e-05
1.6406e-05
0.000120852
0.000183018
0.000221203
0.000256181
0.000299109
0.000347481
0.000398672
0.000450331
0.000501979
0.000549994
0.000589905
0.000622568
0.000649164
0.000670398
0.000686744
0.000698368
0.000705562
0.000708997
0.000708681
0.000705967
0.000699568
0.000690876
0.000680397
0.000668428
0.000653769
0.00063786
0.00062099
0.000601438
0.000580568
0.000557412
0.000528978
0.000483203
0.00039145
0.000188961
1.08942e-05
0.000118704
0.000213159
0.000305579
0.00039677
0.000482611
0.000558925
0.000626454
0.00068306
0.000725837
0.000756382
0.000777486
0.000791399
0.000799384
0.000802466
0.000801786
0.000797207
0.000789655
0.000779592
0.000767414
0.000753283
0.000737354
0.000719629
0.000700354
0.000679934
0.000659306
0.000637356
0.000614397
0.000593062
0.000572715
0.000551641
0.000525141
0.000476068
0.000394216
0.000265847
1.4279e-05
0.000205248
0.000381516
0.000530182
0.000646382
0.000729254
0.000784209
0.00081736
0.000834904
0.000842129
0.000843427
0.000842078
0.000838979
0.000835459
0.000831498
0.000826708
0.000820458
0.000812033
0.000800919
0.000786816
0.000769652
0.000749569
0.000726932
0.000702482
0.000676896
0.000649265
0.000620676
0.000594457
0.000570423
0.000548287
0.000527402
0.000501987
0.000456675
0.000395133
0.000316549
3.60944e-05
0.000295441
0.000519523
0.000669357
0.000757021
0.000806628
0.000835415
0.0008515
0.00085902
0.000861657
0.000865365
0.000869833
0.000876956
0.000884498
0.000889943
0.000892398
0.000890548
0.000882395
0.000868327
0.000848521
0.000823541
0.000794333
0.000761972
0.000727132
0.000690765
0.000652702
0.000616448
0.000584647
0.000556097
0.000530551
0.000507699
0.000482323
0.000443081
0.000394954
0.000334836
7.27951e-05
0.000399784
0.000646438
0.000782525
0.000855124
0.000897597
0.000922461
0.000933437
0.000932539
0.000923601
0.000912719
0.000913349
0.000924812
0.00094012
0.000951104
0.000953496
0.000949251
0.000937389
0.000918781
0.000894068
0.000864453
0.000831003
0.000794156
0.000753851
0.000709446
0.000663377
0.00062029
0.000582198
0.000547222
0.000515946
0.000489327
0.000464033
0.000431536
0.000392208
0.000338051
0.000111314
0.000474849
0.000713651
0.000834871
0.000899398
0.000937326
0.000957287
0.000961349
0.000952402
0.000933956
0.000918315
0.00091831
0.000930447
0.000945769
0.000960173
0.000970442
0.00097315
0.000968069
0.000954418
0.000933857
0.000907305
0.0008758
0.000839863
0.000799609
0.000755053
0.000708196
0.000660521
0.000610422
0.000560412
0.000517673
0.000482656
0.000452798
0.000422938
0.000387955
0.000337757
0.000139819
0.000521515
0.000768185
0.000894648
0.000963113
0.00100433
0.00102638
0.00103021
0.00101678
0.000989279
0.000957104
0.000934721
0.000932589
0.000943683
0.000959725
0.000973624
0.000982356
0.000985045
0.000981207
0.000968541
0.00094772
0.000920605
0.000887941
0.000850287
0.000808029
0.000762617
0.000714176
0.000659938
0.000599399
0.000537736
0.000486677
0.00044987
0.00041837
0.000385527
0.000340372
0.000160007
0.000552749
0.000796771
0.000922399
0.000992305
0.00103559
0.00105966
0.00106583
0.00105542
0.00103027
0.000994836
0.000957927
0.000933115
0.000932598
0.000943397
0.00096108
0.000976107
0.000985164
0.000987265
0.000982479
0.000970694
0.000951697
0.000925811
0.000894164
0.000857988
0.000817571
0.000771061
0.000716322
0.000651889
0.00057859
0.000508419
0.000454441
0.000418951
0.000386361
0.000347449
0.000171965
0.000569119
0.000825674
0.000962022
0.00103896
0.00108776
0.00111697
0.00112756
0.00112129
0.00109886
0.00106293
0.00101797
0.000971759
0.000935638
0.000923467
0.000928161
0.000942816
0.000957975
0.000969449
0.000974733
0.000972775
0.000963146
0.000946697
0.000923623
0.000894788
0.000860052
0.000817271
0.000764254
0.000698926
0.000619955
0.000535757
0.000468199
0.000424542
0.000391143
0.000357495
0.000176342
0.000576338
0.000835084
0.000975691
0.00105698
0.00111005
0.00114418
0.00116105
0.00116249
0.00114913
0.00112229
0.00108411
0.00103765
0.00098845
0.000944305
0.000917403
0.000913931
0.000921892
0.000936214
0.000948559
0.000956121
0.000957284
0.000951635
0.000938467
0.000918411
0.000890361
0.000852734
0.000803563
0.000739622
0.000658287
0.000565313
0.000486771
0.000435873
0.00039974
0.000368592
0.000176698
0.000581189
0.000851458
0.0010024
0.00109061
0.00114911
0.00118845
0.00121126
0.00121757
0.00120942
0.00118765
0.00115422
0.00111134
0.00106149
0.00100847
0.000956577
0.000914524
0.000892742
0.000890848
0.000899203
0.000912396
0.000923299
0.000929109
0.000927763
0.000917869
0.000899081
0.000869713
0.00082748
0.000768395
0.000689122
0.000593799
0.000507811
0.000450735
0.000411278
0.0003812
0.000173779
0.000581178
0.00085506
0.00101136
0.0011046
0.00116771
0.00121185
0.00124018
0.00125312
0.00125219
0.0012376
0.00121071
0.00117355
0.00112845
0.00107788
0.00102461
0.00097031
0.000919721
0.000881644
0.000863889
0.000864455
0.000875484
0.000887845
0.000895767
0.000896753
0.000888955
0.000868211
0.000833897
0.000783136
0.000709858
0.000617046
0.00052864
0.000467887
0.000425596
0.000396354
0.00017332
0.000586625
0.000872966
0.00103906
0.00113777
0.0012044
0.0012515
0.0012825
0.00129849
0.00129971
0.00128727
0.00126194
0.00122586
0.00118145
0.00113135
0.00107834
0.00102465
0.000970721
0.000918285
0.000872448
0.000841597
0.000831752
0.000838133
0.00084866
0.00085668
0.000858567
0.000851405
0.000828366
0.000785134
0.000721838
0.000635561
0.000548868
0.000486689
0.000442302
0.000414219
0.000179179
0.000595489
0.000887725
0.00105838
0.00116038
0.00122977
0.00127945
0.00131297
0.00133138
0.00133492
0.00132499
0.00130099
0.00126553
0.00122105
0.00117021
0.00111567
0.00106034
0.00100545
0.00095146
0.00089954
0.00085299
0.000818527
0.00080286
0.000803502
0.000810996
0.000818104
0.000818548
0.00080844
0.000778882
0.000723127
0.000646819
0.00056577
0.000505392
0.000460771
0.000433835
0.000199324
0.000621003
0.000921121
0.00109565
0.00119929
0.0012697
0.00132007
0.00135383
0.00137195
0.00137445
0.00136308
0.001337
0.00129933
0.00125269
0.00119977
0.00114302
0.00108481
0.00102679
0.000969437
0.000913796
0.000861828
0.000817812
0.000789056
0.000775808
0.000774331
0.000779535
0.000784284
0.000781377
0.000762465
0.000721348
0.000655383
0.000580849
0.000523759
0.000479735
0.000450349
0.000227423
0.000647622
0.000944811
0.0011185
0.00122192
0.00129366
0.00134569
0.00138112
0.00140075
0.00140456
0.0013937
0.00136856
0.00133164
0.00128534
0.00123212
0.00117425
0.00111371
0.0010521
0.000989693
0.000927658
0.000868369
0.000816376
0.000779218
0.000758454
0.000749576
0.000749706
0.00075409
0.000754363
0.000744104
0.000712333
0.0006567
0.000592025
0.000540216
0.00049684
0.000457452
0.00025772
0.000668249
0.000956137
0.0011321
0.00124331
0.00131861
0.00137327
0.00141123
0.00143353
0.0014402
0.00143243
0.00141146
0.00137873
0.00133598
0.00128506
0.00122773
0.00116563
0.00110042
0.00103208
0.000961622
0.000891694
0.000827689
0.000778306
0.000748203
0.00073256
0.000727811
0.00073
0.000732199
0.000726105
0.00070161
0.000655805
0.000600022
0.000553832
0.000510445
0.000456656
0.000267126
0.000669518
0.000958554
0.00113476
0.00124644
0.00132486
0.00138374
0.00142703
0.00145591
0.00147007
0.00147138
0.00146022
0.00143714
0.00140297
0.0013588
0.00130593
0.0012458
0.00117981
0.00110836
0.00103175
0.000951833
0.000873421
0.000805435
0.00075664
0.000728161
0.000713868
0.000710146
0.000711128
0.000708995
0.000692148
0.00065464
0.000607002
0.000564949
0.000519931
0.000449082
0.000265393
0.000661275
0.000952336
0.00113338
0.00124753
0.00133147
0.00139517
0.00144329
0.00147814
0.00150083
0.00151056
0.00150975
0.0014977
0.00147434
0.00143985
0.00139484
0.00134038
0.00127778
0.00120818
0.00113121
0.00104721
0.000958571
0.000871446
0.000796943
0.000744818
0.000715627
0.00069992
0.000693764
0.000689223
0.000677776
0.000651938
0.000611887
0.000573369
0.000526765
0.000445106
0.000242036
0.000630035
0.000927549
0.00112128
0.00124441
0.00133129
0.00139892
0.0014513
0.00149145
0.00152083
0.00154024
0.00154895
0.00154829
0.00153689
0.00151398
0.00147925
0.00143307
0.0013765
0.00131102
0.00123709
0.00115409
0.00106207
0.000963783
0.000868593
0.000790089
0.000733584
0.000702286
0.000686595
0.000678388
0.000669391
0.000650117
0.000617353
0.00058162
0.000533688
0.000447094
0.000213904
0.000601476
0.000903062
0.00110719
0.00123913
0.00133114
0.00140272
0.00145904
0.00150372
0.00153874
0.00156514
0.00158366
0.00159342
0.00159426
0.00158413
0.00156177
0.00152625
0.00147789
0.001418
0.00134869
0.0012696
0.00117988
0.00107938
0.000971723
0.000869446
0.000785267
0.000724917
0.000690758
0.000674568
0.000663529
0.00064815
0.000621028
0.000587993
0.000540933
0.000459287
0.000193616
0.000586517
0.000895146
0.0011044
0.00123956
0.00133524
0.0014077
0.00146515
0.00151168
0.00154983
0.00158126
0.00160677
0.00162651
0.00163886
0.00164137
0.00163242
0.00160901
0.00157053
0.00151778
0.00145309
0.00137822
0.00129305
0.00119638
0.00108683
0.000972132
0.000866683
0.000776482
0.000713113
0.000678757
0.000664658
0.000650808
0.000627798
0.000597146
0.000551585
0.000479142
0.000191
0.000586635
0.000901775
0.00111869
0.00125895
0.00135541
0.00142732
0.00148386
0.00152967
0.00156807
0.00160156
0.00163171
0.00165901
0.00168161
0.00169572
0.00169704
0.00168538
0.00165529
0.00160824
0.00154589
0.00147136
0.00138576
0.00128872
0.00117926
0.00106484
0.000955638
0.00085133
0.00076294
0.00070323
0.000672479
0.000655015
0.000633518
0.00060533
0.000564135
0.000511052
0.000202556
0.000622895
0.000954782
0.0011653
0.00129647
0.00138699
0.00145498
0.00150802
0.00155062
0.00158748
0.00162221
0.00165776
0.00169493
0.0017304
0.00175853
0.00177331
0.00177044
0.001747
0.00170241
0.00163869
0.00155955
0.0014671
0.00136206
0.00124518
0.00112579
0.00101367
0.000905017
0.000806133
0.000731687
0.000688757
0.000665549
0.000643817
0.00061764
0.000581137
0.000541892
0.000234552
0.000673747
0.0010081
0.00120897
0.00133022
0.00141394
0.00147718
0.0015275
0.00156783
0.00160388
0.00164241
0.00168792
0.00173987
0.00179257
0.00183918
0.00187054
0.00187959
0.00186585
0.00182396
0.00175683
0.00166944
0.00156806
0.00145179
0.00132206
0.00119155
0.00107223
0.000958487
0.000851623
0.00076441
0.000708421
0.00067723
0.000653863
0.000629506
0.000597516
0.000565368
0.000293375
0.000748206
0.00107109
0.00125376
0.00136178
0.00143711
0.00149321
0.00153449
0.00157041
0.00160469
0.00164314
0.00169014
0.00174578
0.00180629
0.00186214
0.00190614
0.0019326
0.00193756
0.00191917
0.00187051
0.00179252
0.00168685
0.00155402
0.00139759
0.0012415
0.00110518
0.000984972
0.000879055
0.000791529
0.000730872
0.000694059
0.000667964
0.0006437
0.000612986
0.000575065
0.000382134
0.000820656
0.00111585
0.00127736
0.00137428
0.00144163
0.00149429
0.00153449
0.00156632
0.00159489
0.00163051
0.0016791
0.00173879
0.00180133
0.00185964
0.00190573
0.00193471
0.00194379
0.00193201
0.00189903
0.00184243
0.00175666
0.00164099
0.00149904
0.00133743
0.00116978
0.00101195
0.000891865
0.000804653
0.000744929
0.000707187
0.000681155
0.000658085
0.000627507
0.000570096
0.000448534
0.000839772
0.00111992
0.00127909
0.00137552
0.00144324
0.00149064
0.0015206
0.0015374
0.00154898
0.00156683
0.0015975
0.00164333
0.00170379
0.0017704
0.00183186
0.00188067
0.00191067
0.00191746
0.00189864
0.00185387
0.00178438
0.00169214
0.00157212
0.00142513
0.00125519
0.00107568
0.000917297
0.000816011
0.000758285
0.000721625
0.000694816
0.000669793
0.000629544
0.000537216
0.000450275
0.000840992
0.00111729
0.00127429
0.00137108
0.00143983
0.00148817
0.00151866
0.00153512
0.00153987
0.00153355
0.00152578
0.00152659
0.00154702
0.00159126
0.00164876
0.00171178
0.0017683
0.00180931
0.00182695
0.00181812
0.00178034
0.00171381
0.00162086
0.00149817
0.00133805
0.0011485
0.000965227
0.000835835
0.000767349
0.000732202
0.000706996
0.000679066
0.000628822
0.000503875
0.00042296
0.000799529
0.00107842
0.00124408
0.00135159
0.00143078
0.0014887
0.00152762
0.00154297
0.00154329
0.00153248
0.00151705
0.0014999
0.0014793
0.00146165
0.00146888
0.00150707
0.00156095
0.00161841
0.00166854
0.00169753
0.00170113
0.00167517
0.00161829
0.00152687
0.00139412
0.00122034
0.00103172
0.000879009
0.000791417
0.000748713
0.00072005
0.00068643
0.000623549
0.000478247
0.00037446
0.000758564
0.00104579
0.00122064
0.00133401
0.0014186
0.00148459
0.0015334
0.0015693
0.0015824
0.00157748
0.00155477
0.00151912
0.00147789
0.00143739
0.00140513
0.00137983
0.00137158
0.00139573
0.00145005
0.00150306
0.00154325
0.00155953
0.00154593
0.00149695
0.00140425
0.00126531
0.001091
0.000929447
0.000824855
0.000770399
0.000734689
0.000694086
0.000621632
0.000471713
0.000328798
0.000717553
0.0010093
0.00119289
0.00131366
0.0014043
0.00147631
0.0015328
0.0015748
0.00160219
0.00161334
0.00161036
0.00159062
0.00155369
0.00150158
0.00143962
0.00137798
0.00132514
0.00128841
0.00127075
0.00128832
0.00133432
0.00137866
0.00140686
0.00140746
0.00136965
0.00127482
0.00113492
0.000979701
0.000862675
0.000794557
0.000749899
0.000702386
0.000622646
0.000475315
0.000308116
0.000698189
0.00099127
0.00117997
0.00130517
0.00139966
0.00147517
0.00153513
0.0015796
0.00160887
0.00162405
0.00162583
0.0016158
0.00159405
0.00155991
0.00151241
0.00145147
0.00138016
0.00130619
0.00124294
0.00119604
0.00117345
0.00119461
0.00123628
0.0012721
0.00128464
0.00125318
0.00115368
0.00102155
0.000901843
0.000821708
0.000767671
0.000713917
0.000630823
0.00049441
0.000296732
0.000681405
0.000974373
0.00116764
0.00129741
0.00139673
0.00147754
0.0015433
0.00159474
0.00163162
0.00165311
0.00165932
0.00165128
0.00162985
0.00159646
0.00155255
0.00149915
0.00143667
0.00136564
0.00128895
0.00121262
0.0011476
0.00110407
0.00109997
0.00113611
0.00117913
0.001191
0.00114949
0.00105108
0.000938772
0.000850431
0.000787761
0.000728591
0.000643784
0.000516347
0.000284278
0.000663183
0.000958691
0.00115853
0.00129465
0.00139652
0.00148
0.00154821
0.00160274
0.00164382
0.00167097
0.0016841
0.00168347
0.00166935
0.00164175
0.00160126
0.00154894
0.00148625
0.0014149
0.00133719
0.00125602
0.00117456
0.00110252
0.00105709
0.00105209
0.00107923
0.00111692
0.00111427
0.00105297
0.000963343
0.000876532
0.000808802
0.000745413
0.000659132
0.000536728
0.000283623
0.000657758
0.000952069
0.00115625
0.0012957
0.00140167
0.00148832
0.00156047
0.00161922
0.00166443
0.00169541
0.00171167
0.0017137
0.00170271
0.00167835
0.00164161
0.00159304
0.00153319
0.00146274
0.00138311
0.00129712
0.00120695
0.00111954
0.00105144
0.00101871
0.00102215
0.00105063
0.00107108
0.00104918
0.000979941
0.000898997
0.000829487
0.000763695
0.000676414
0.000554528
0.00028884
0.00065815
0.00095202
0.00115728
0.0013001
0.001409
0.00149834
0.00157342
0.00163549
0.00168482
0.0017208
0.00174248
0.0017499
0.00174352
0.0017229
0.00168851
0.00164105
0.0015815
0.00151069
0.00142958
0.00133979
0.00124254
0.00114355
0.00105907
0.00100744
0.000993941
0.00100787
0.00103239
0.00103204
0.000987503
0.00091718
0.00084909
0.00078216
0.000693375
0.000568834
0.000303912
0.000673835
0.000964479
0.00116582
0.00130755
0.00141846
0.0015109
0.00158854
0.0016529
0.00170508
0.00174474
0.00177103
0.00178394
0.00178346
0.00176954
0.00174087
0.00169737
0.00163941
0.00156803
0.0014846
0.00139042
0.00128622
0.00117656
0.00107706
0.00100852
0.000978219
0.00098097
0.00100072
0.00101202
0.000986019
0.000930166
0.000866874
0.000800873
0.000711215
0.000580787
0.000318089
0.000682711
0.000969602
0.00116853
0.00131037
0.00142347
0.00151994
0.00160276
0.00167281
0.00173012
0.0017747
0.00180636
0.00182528
0.00183156
0.00182502
0.00180358
0.00176614
0.00171164
0.00163997
0.00155258
0.00145248
0.00134125
0.00122121
0.0011068
0.00102017
0.000974334
0.000966314
0.00098034
0.000997182
0.000986454
0.000940821
0.000882683
0.000818035
0.000726858
0.000587301
0.000333735
0.000695448
0.000977621
0.00117243
0.00131225
0.00142617
0.00152461
0.0016102
0.00168309
0.00174331
0.00179046
0.00182428
0.00184535
0.00185461
0.00185247
0.00183818
0.00181048
0.00176733
0.00170641
0.00162593
0.00152533
0.00140516
0.00127126
0.00114107
0.00103733
0.00097704
0.000958333
0.000967357
0.000985179
0.000982481
0.000948785
0.000897073
0.000834441
0.000740549
0.000587482
0.000351785
0.000708994
0.000983713
0.00117321
0.00131211
0.00142621
0.00152592
0.00161445
0.00169076
0.00175308
0.00180124
0.00183506
0.00185522
0.00186308
0.0018599
0.00184585
0.00182066
0.00178302
0.00173091
0.00166202
0.00157406
0.0014628
0.00132659
0.00117743
0.0010538
0.000981029
0.000954971
0.000961938
0.000981341
0.000983187
0.000955558
0.00090843
0.000846573
0.000746865
0.000575171
0.000364679
0.000713822
0.000983829
0.00117074
0.00130798
0.00142295
0.00152498
0.00161509
0.0016951
0.00176345
0.0018167
0.00185458
0.00187732
0.00188598
0.00188188
0.00186588
0.00183847
0.00179925
0.00174697
0.00168008
0.00159688
0.00149301
0.00136438
0.00121472
0.00107232
0.000985949
0.000953488
0.000958726
0.000977946
0.00098424
0.000961134
0.000917801
0.000855964
0.000748956
0.000557673
0.000367735
0.000714168
0.000980065
0.00116075
0.00129504
0.00141043
0.00151568
0.00161123
0.00169486
0.00176674
0.00182493
0.00186694
0.00189297
0.00190378
0.00190051
0.00188431
0.00185605
0.00181601
0.00176358
0.00169769
0.00161663
0.00151652
0.00139321
0.00124792
0.00110221
0.000999283
0.000955796
0.000957052
0.000974998
0.000983716
0.000964591
0.000924277
0.000862834
0.000749559
0.000544156
0.0003675
0.000712194
0.000973402
0.00115036
0.00128235
0.00139713
0.00150323
0.00160156
0.00169061
0.00176751
0.00183258
0.00188143
0.00191342
0.00192885
0.0019285
0.0019136
0.00188511
0.00184401
0.00179044
0.00172389
0.00164266
0.00154312
0.00142105
0.00127637
0.00112681
0.0010129
0.000961172
0.000957065
0.00097414
0.000982869
0.00096686
0.000929223
0.000868218
0.0007501
0.000536345
0.000364056
0.000707504
0.000965807
0.0011384
0.00126694
0.00138111
0.00148821
0.00158937
0.00168318
0.00176687
0.00183737
0.00189261
0.00193105
0.00195246
0.00195716
0.00194623
0.00192032
0.00188088
0.00182859
0.00176363
0.00168444
0.00158755
0.00146811
0.00132345
0.00116623
0.00103413
0.000967453
0.000957493
0.000971504
0.000981055
0.000967689
0.00093313
0.00087354
0.000753572
0.000536929
0.000363984
0.000706917
0.000960895
0.00112859
0.00125331
0.001366
0.00147319
0.00157632
0.0016738
0.0017626
0.00183932
0.00190261
0.00194797
0.00197557
0.00198543
0.00197841
0.00195526
0.00191768
0.00186698
0.00180416
0.00172822
0.00163657
0.00152477
0.00138893
0.00123622
0.00109183
0.000990835
0.00096164
0.00097153
0.000980722
0.000969279
0.000936853
0.000878864
0.000759191
0.000547653
0.000367034
0.000707522
0.000956894
0.001119
0.00123931
0.00134928
0.00145555
0.00156002
0.00166118
0.00175539
0.00183802
0.00190676
0.00196157
0.00199715
0.00201365
0.00201174
0.00199243
0.0019572
0.00190789
0.00184621
0.00177189
0.00168347
0.00157736
0.00144973
0.00130531
0.00115973
0.00103813
0.000978524
0.00097472
0.00098217
0.000972893
0.00094227
0.000886348
0.000769873
0.000565751
0.00037228
0.000709205
0.000952981
0.00110897
0.00122422
0.00133004
0.0014341
0.00153843
0.00164206
0.00174128
0.00183111
0.00190696
0.0019667
0.00200923
0.00203213
0.00203574
0.00202122
0.00198895
0.00194139
0.00188047
0.00180719
0.00172152
0.0016213
0.00150332
0.00137107
0.00122856
0.00109233
0.00100538
0.000983262
0.000985311
0.000976288
0.000947747
0.000893406
0.000778275
0.00057217
0.000376653
0.000709909
0.00094892
0.00109936
0.00120946
0.00131054
0.00141115
0.00151391
0.00161851
0.00172136
0.00181698
0.00189989
0.00196621
0.00201595
0.00204669
0.00205635
0.00204578
0.00201547
0.00196778
0.00190452
0.00182759
0.00173841
0.00163691
0.00152515
0.00140503
0.00127531
0.00114181
0.00104211
0.00100162
0.000994844
0.000983232
0.000953866
0.000898187
0.000778523
0.000568486
0.00038058
0.000710285
0.000944795
0.00108952
0.00119412
0.00128975
0.00138583
0.00148564
0.00158981
0.00169515
0.00179581
0.00188569
0.00196037
0.00201667
0.00205518
0.00207179
0.00206631
0.00203909
0.00199145
0.00192445
0.00184033
0.00174168
0.0016305
0.00151091
0.00139132
0.00127271
0.00115731
0.00106939
0.0010256
0.00101044
0.000992489
0.000959699
0.000899819
0.000773338
0.00054099
0.000381078
0.000709106
0.000940012
0.00107987
0.00117919
0.00126896
0.00135931
0.00145408
0.00155525
0.00166078
0.00176504
0.00186138
0.00194446
0.00201037
0.00205633
0.00208317
0.00208602
0.00206518
0.00202039
0.00195185
0.00186106
0.00175035
0.00162283
0.00148416
0.00134997
0.00123593
0.00114479
0.00107574
0.00103717
0.00101826
0.000996497
0.000961475
0.00089849
0.000760685
0.000513972
0.000377877
0.000705377
0.000933906
0.00106974
0.00116435
0.00124843
0.00133245
0.00142065
0.00151626
0.0016191
0.00172468
0.0018262
0.00191738
0.00199342
0.00205091
0.0020873
0.00210388
0.00209471
0.0020593
0.00199682
0.00190741
0.00179251
0.00165444
0.00149793
0.00134126
0.00121092
0.00112047
0.00106814
0.00103974
0.00102356
0.00100045
0.000963724
0.000898974
0.000759473
0.000506728
0.000370759
0.000700442
0.000927639
0.00106046
0.00115124
0.00123017
0.0013077
0.00138859
0.0014766
0.00157373
0.00167756
0.0017819
0.00187974
0.0019653
0.00203448
0.00208438
0.00211282
0.00212107
0.00210153
0.0020539
0.00197662
0.00186941
0.00173208
0.00156478
0.0013785
0.00121497
0.00111167
0.00106133
0.00104287
0.00102686
0.00100291
0.000965314
0.00090031
0.000760905
0.000511119
0.000364682
0.000695334
0.000920959
0.00105169
0.00113979
0.00121451
0.00128597
0.00135937
0.00143872
0.00152789
0.00162701
0.00173129
0.00183344
0.00192664
0.00200605
0.00206858
0.00211213
0.00213403
0.00213544
0.00211112
0.00205668
0.00197284
0.00185763
0.00170851
0.00152477
0.00131878
0.00114352
0.00107162
0.00104512
0.001032
0.00100936
0.000971662
0.000907678
0.000772573
0.000549979
0.000363011
0.000691515
0.000915046
0.00104419
0.00113045
0.00120194
0.0012681
0.0013341
0.00140461
0.00148425
0.00157597
0.00167726
0.00178107
0.00187942
0.00196631
0.00203821
0.00209271
0.00212775
0.00214186
0.0021352
0.00210718
0.00205307
0.00197128
0.0018595
0.00170918
0.00151516
0.00130048
0.00112452
0.00105078
0.00103272
0.0010156
0.000981261
0.000920679
0.000797781
0.000605182
0.00036491
0.000688458
0.000909365
0.00103768
0.00112307
0.00119231
0.00125431
0.00131367
0.00137571
0.00144547
0.00152722
0.0016216
0.0017241
0.00182538
0.00191756
0.00199602
0.00205777
0.00210134
0.00212631
0.0021326
0.00212032
0.00208812
0.0020359
0.00195914
0.00184743
0.00169002
0.00148715
0.00127505
0.00112396
0.00105363
0.00102114
0.000987464
0.000933236
0.000821912
0.000635132
0.000369222
0.000684901
0.000903233
0.00103139
0.00111677
0.0011849
0.00124383
0.00129742
0.0013506
0.00140958
0.00147998
0.00156512
0.00166291
0.00176513
0.00186122
0.00194436
0.00201025
0.00205753
0.00208635
0.00209776
0.00209295
0.00207206
0.00203472
0.00197715
0.00189188
0.0017683
0.00159818
0.00139381
0.00121253
0.00110403
0.00104802
0.00100383
0.000944389
0.000829235
0.000633262
0.000369474
0.000678397
0.000895477
0.00102464
0.00111118
0.00117963
0.0012369
0.00128571
0.00133048
0.00137755
0.00143452
0.00150702
0.00159636
0.00169672
0.00179606
0.00188381
0.00195355
0.0020032
0.00203294
0.00204427
0.00203927
0.00201976
0.00198689
0.00193921
0.0018679
0.00176083
0.00160988
0.001434
0.001263
0.00114439
0.00107396
0.00101962
0.000951151
0.000822935
0.000580188
0.00036544
0.000668706
0.000885453
0.00101637
0.00110521
0.00117552
0.0012336
0.00128119
0.00131976
0.0013545
0.00139626
0.00145151
0.00152761
0.00162104
0.0017217
0.00181481
0.0018903
0.00194436
0.00197645
0.00198765
0.00198046
0.00195726
0.00191984
0.00186847
0.00180057
0.00170971
0.00158979
0.00143726
0.0012876
0.00117316
0.00109594
0.00103244
0.000951266
0.000799561
0.000533392
0.000356517
0.000656862
0.000874053
0.00100707
0.00109861
0.00117178
0.00123213
0.00128083
0.00131881
0.00134844
0.00137255
0.00140595
0.00146143
0.00154192
0.00163918
0.00173769
0.00182199
0.00188454
0.00192334
0.00193852
0.00193251
0.00190719
0.00186428
0.00180525
0.0017323
0.00164649
0.00154577
0.00142804
0.00130382
0.0011984
0.0011173
0.00104651
0.00095639
0.000795608
0.000521844
0.000343141
0.000642068
0.000860263
0.000996063
0.00109093
0.00116774
0.00123171
0.00128326
0.00132192
0.00134922
0.00136954
0.00138759
0.00141346
0.00146944
0.00155421
0.00165277
0.00174608
0.0018211
0.00187234
0.001899
0.00190203
0.00188284
0.00184228
0.00178123
0.00170298
0.00161436
0.0015217
0.00142283
0.00131548
0.0012166
0.00113351
0.00105899
0.00096466
0.000796819
0.000526263
0.000330173
0.000627873
0.000846823
0.000985355
0.00108363
0.00116446
0.00123308
0.00128908
0.00133151
0.00136004
0.00137659
0.00138632
0.00139743
0.00141969
0.0014788
0.00156683
0.00166363
0.00175028
0.00181625
0.00185838
0.00187655
0.00187121
0.00184181
0.00178735
0.00170916
0.00161569
0.00152023
0.00142302
0.00132626
0.00123365
0.00115114
0.00107491
0.000979551
0.000812157
0.00055504
0.000318219
0.000613368
0.000832919
0.00097441
0.00107623
0.00116109
0.00123419
0.0012952
0.0013428
0.00137563
0.00139361
0.00139845
0.00139752
0.0014033
0.0014249
0.00148771
0.00157672
0.00166963
0.00174902
0.0018071
0.00184194
0.00185332
0.00184015
0.00179974
0.00173139
0.00163814
0.0015327
0.00143163
0.00133608
0.00124637
0.00116407
0.00108739
0.00099333
0.000830669
0.000581897
0.000307108
0.000599135
0.000819188
0.000963985
0.00106945
0.00115835
0.00123626
0.00130289
0.00135668
0.00139559
0.00141822
0.00142476
0.00141793
0.00140719
0.00140857
0.00143273
0.00149806
0.00158606
0.00167338
0.0017449
0.00179487
0.00182206
0.00182471
0.00179972
0.0017467
0.00166655
0.00156468
0.00145763
0.0013566
0.00126418
0.00118001
0.00110288
0.00101018
0.000850077
0.00059697
0.000296838
0.000585031
0.00080608
0.0009539
0.00106255
0.0011551
0.00123751
0.00130962
0.0013698
0.00141572
0.0014451
0.00145648
0.001452
0.00143476
0.00141701
0.00141684
0.00144436
0.001511
0.0015953
0.00167495
0.00173762
0.00177885
0.00179635
0.0017877
0.00174668
0.00167666
0.00158663
0.00148154
0.00137562
0.00127791
0.00119176
0.0011142
0.00102077
0.000859061
0.000596029
0.000287529
0.00057342
0.000795131
0.000945443
0.00105706
0.00115329
0.00124034
0.00131816
0.00138506
0.00143844
0.00147531
0.0014934
0.00149325
0.00147743
0.00145136
0.00142916
0.00142957
0.00146171
0.00152901
0.00160766
0.00167797
0.0017286
0.00175544
0.00175639
0.0017295
0.00167204
0.00158823
0.00149209
0.00138905
0.0012916
0.00120474
0.0011258
0.00103081
0.000866162
0.000591737
0.000278947
0.000562822
0.000784591
0.000936787
0.00105097
0.00115061
0.00124214
0.00132554
0.00139914
0.00145996
0.00150458
0.00153078
0.00153727
0.00152542
0.0015002
0.0014685
0.00144504
0.00144785
0.00148496
0.00155103
0.00162304
0.00168105
0.001716
0.00172451
0.00170479
0.00165629
0.00158448
0.00149697
0.00140028
0.00130446
0.00121663
0.00113674
0.00104098
0.000873416
0.00059227
0.000272465
0.000554849
0.00077609
0.000929335
0.00104563
0.00114854
0.00124459
0.00133377
0.00141435
0.00148267
0.0015349
0.00156838
0.00158172
0.00157534
0.00155239
0.00151978
0.00148615
0.00146583
0.00147557
0.00151981
0.00158443
0.00164481
0.00168544
0.00169944
0.0016878
0.00164866
0.00158444
0.00150058
0.00140756
0.00131359
0.00122625
0.00114629
0.00104979
0.000880207
0.000604441
0.000270937
0.000548887
0.000768632
0.000922002
0.00103992
0.00114582
0.00124636
0.00134132
0.00142895
0.00150469
0.00156446
0.00160528
0.00162527
0.00162423
0.00160456
0.00157162
0.00153355
0.00150087
0.00149044
0.00151311
0.00156759
0.00162908
0.00167717
0.00170074
0.00169513
0.00166049
0.00160066
0.00152002
0.00142738
0.00133244
0.00124302
0.00116116
0.00106546
0.000901595
0.000641223
0.00027191
0.000545515
0.000762659
0.000915251
0.0010343
0.0011429
0.00124722
0.00134908
0.001444
0.00152699
0.00159397
0.00164167
0.00166786
0.00167175
0.00165551
0.0016225
0.0015803
0.00153749
0.00151033
0.0015158
0.00155856
0.00161897
0.00167352
0.0017065
0.00171205
0.00168912
0.00163448
0.00155329
0.00145603
0.0013559
0.00126161
0.00117678
0.00108158
0.000923915
0.00067055
0.000277234
0.000543945
0.000756665
0.000907372
0.00102708
0.00113846
0.00124782
0.00135568
0.00145742
0.00154743
0.00162169
0.00167632
0.00170847
0.00171693
0.00170342
0.00167069
0.0016243
0.00157261
0.00153129
0.00152157
0.00155096
0.00161013
0.0016699
0.00171028
0.00172787
0.00171861
0.00167347
0.00159565
0.00149389
0.0013855
0.00128471
0.00119626
0.00109811
0.000940177
0.00067395
0.000282535
0.000541911
0.000749598
0.000897649
0.00101726
0.0011308
0.00124422
0.00135633
0.0014648
0.00156358
0.00164635
0.00170901
0.00174806
0.00176152
0.00175067
0.00171806
0.00166737
0.0016045
0.00154436
0.00151289
0.00152962
0.00158668
0.00165297
0.00170499
0.00173057
0.00172778
0.00169657
0.00162656
0.00152669
0.00141493
0.00130993
0.0012167
0.00111217
0.000944248
0.000660439
0.000285707
0.000538386
0.000740571
0.000885169
0.0010038
0.00111869
0.00123615
0.00135345
0.001466
0.00157166
0.00166464
0.00173669
0.0017846
0.00180557
0.00180047
0.00177116
0.0017192
0.00164818
0.00156981
0.00151084
0.00150423
0.00154947
0.00161971
0.00168169
0.00172035
0.00172567
0.00169821
0.00163868
0.00154427