/*--------------------------------*- C++ -*----------------------------------*\
| =========                 |                                                 |
| \\      /  F ield         | OpenFOAM: The Open Source CFD Toolbox           |
|  \\    /   O peration     | Version:  2.0.x                                 |
|   \\  /    A nd           | Web:      www.OpenFOAM.org                      |
|    \\/     M anipulation  |                                                 |
\*---------------------------------------------------------------------------*/
FoamFile
{
    version     2.0;
    format      ascii;
    class       volScalarField;
    location    "800";
    object      omega;
}
// * * * * * * * * * * * * * * * * * * * * * * * * * * * * * * * * * * * * * //

dimensions      [0 0 -1 0 0 0 0];

internalField   nonuniform List<scalar> 
78750
(
1020.15
5.59116
6.11059
6.33627
6.44805
6.52733
6.61361
6.71219
6.81556
6.91071
6.99582
7.06806
7.12826
7.17845
7.22015
7.2531
7.27769
7.29609
7.30866
7.31566
7.31506
7.31484
7.30619
7.29332
7.27657
7.26
7.23932
7.2082
7.16868
7.12388
7.07051
7.00378
6.89277
6.50896
1089.78
1020.01
4.92425
5.3289
5.55886
5.7593
5.99754
6.25853
6.52523
6.78434
7.03283
7.25591
7.43642
7.58114
7.69715
7.78867
7.85843
7.90794
7.9387
7.95382
7.95376
7.94055
7.91521
7.87951
7.83596
7.785
7.72244
7.65419
7.58116
7.49558
7.40306
7.29934
7.17044
6.9618
6.5345
1090.71
1019.96
4.87869
5.47584
6.00459
6.4865
6.91168
7.27085
7.57569
7.82283
8.00513
8.13343
8.22156
8.27975
8.31379
8.32806
8.32648
8.31026
8.28149
8.24209
8.19376
8.13713
8.07256
7.9999
7.91997
7.83437
7.74684
7.65253
7.55226
7.45785
7.36705
7.27237
7.1537
6.93412
6.55736
1091.3
1019.99
5.43939
6.41944
7.14518
7.66758
8.02135
8.24869
8.38362
8.45503
8.48561
8.49292
8.48948
8.47933
8.46725
8.45294
8.4349
8.41074
8.37775
8.33384
8.27768
8.20875
8.12736
8.03458
7.93307
7.82548
7.70785
7.58367
7.46746
7.35949
7.25905
7.16394
7.04999
6.84835
6.57032
1091.69
1020.16
5.95591
7.09074
7.76098
8.12951
8.3314
8.44676
8.51141
8.5429
8.55583
8.56655
8.58294
8.61313
8.64728
8.67382
8.68546
8.67909
8.6481
8.59403
8.5173
8.41963
8.30411
8.17436
8.03261
7.88191
7.72079
7.56362
7.42285
7.29432
7.17785
7.07356
6.96058
6.78859
6.57711
1091.83
1020.47
6.51393
7.66734
8.23727
8.52628
8.69113
8.78679
8.82992
8.8289
8.80134
8.77724
8.78823
8.83267
8.88273
8.916
8.92223
8.90519
8.85977
8.78895
8.69458
8.58054
8.45022
8.30463
8.14278
7.96081
7.76665
7.58055
7.41264
7.25543
7.11217
6.98999
6.87744
6.73707
6.56767
1091.86
1020.79
6.88728
7.95438
8.44475
8.69444
8.83804
8.91317
8.92959
8.89889
8.83471
8.78352
8.78904
8.83848
8.89797
8.952
8.98829
8.99622
8.97508
8.92323
8.84545
8.74457
8.62381
8.48433
8.32557
8.14625
7.9531
7.75194
7.53585
7.31458
7.12166
6.96098
6.82731
6.69938
6.55111
1091.86
1021.03
7.11202
8.18134
8.67828
8.93575
9.08733
9.16749
9.18148
9.13344
9.03478
8.92086
8.84749
8.84633
8.89462
8.95349
9.0041
9.03543
9.04503
9.02887
8.98018
8.90119
8.79829
8.67334
8.52743
8.3609
8.17834
7.97956
7.75163
7.48982
7.21467
6.98223
6.81625
6.68004
6.54192
1091.88
1021.2
7.25822
8.29735
8.78381
9.04304
9.19984
9.28581
9.30753
9.27013
9.18013
9.05332
8.92312
8.84255
8.84562
8.89309
8.96115
9.01641
9.04811
9.05398
9.03468
8.98977
8.9179
8.81969
8.69864
8.55846
8.39961
8.214
7.9907
7.72008
7.40151
7.0866
6.84146
6.68567
6.54894
1091.93
1021.3
7.33477
8.41384
8.93334
9.21355
9.38697
9.48898
9.52517
9.50247
9.42291
9.29504
9.13397
8.96908
8.84586
8.81389
8.83799
8.89606
8.95311
8.99468
9.01247
9.00325
8.96567
8.90282
8.81471
8.70405
8.56962
8.40197
8.19027
7.92244
7.58733
7.21593
6.91042
6.71664
6.57487
1092.01
1021.34
7.36771
8.45069
8.98385
9.27797
9.46507
9.58332
9.64
9.64446
9.59754
9.50357
9.369
9.2037
9.02793
8.87304
8.78813
8.78318
8.81914
8.87503
8.92115
8.94804
8.95002
8.92626
8.87492
8.79786
8.69021
8.54463
8.35131
8.09403
7.75595
7.35332
7.00163
6.77413
6.61955
1092.1
1021.35
7.38809
8.51482
9.08198
9.3973
9.60059
9.73471
9.8113
9.83171
9.80324
9.72853
9.61336
9.46402
9.28795
9.09817
8.912
8.76666
8.70039
8.70051
8.73877
8.78935
8.8291
8.84866
8.84146
8.80217
8.72922
8.61539
8.45004
8.21466
7.88968
7.48324
7.10272
6.84802
6.67785
1092.19
1021.33
7.39063
8.52833
9.11336
9.44527
9.66354
9.81331
9.90805
9.95065
9.94715
9.89809
9.80759
9.68141
9.52628
9.34944
9.15933
8.96229
8.77841
8.64502
8.59172
8.60117
8.64752
8.69566
8.72546
8.72722
8.6944
8.61233
8.47879
8.27746
7.97967
7.58863
7.20188
6.93234
6.74919
1092.31
1021.32
7.41177
8.595
9.21144
9.55911
9.78702
9.94504
10.0477
10.1002
10.1043
10.0635
9.98033
9.86062
9.71129
9.54015
9.35575
9.16494
8.96915
8.77584
8.60685
8.49746
8.47167
8.50185
8.54496
8.57613
8.58243
8.55379
8.4617
8.28965
8.03261
7.67178
7.29641
7.0228
6.83072
1092.45
1021.36
7.44768
8.64839
9.27807
9.63522
9.871
10.0366
10.147
10.2076
10.2198
10.1884
10.1111
9.99554
9.84848
9.67752
9.49073
9.29754
9.10177
8.90486
8.71169
8.53643
8.40785
8.35377
8.36294
8.39626
8.42601
8.42743
8.38559
8.26675
8.04079
7.723
7.37516
7.11197
6.92006
1092.6
1021.52
7.55505
8.77278
9.40908
9.76802
10.0043
10.17
10.2799
10.3388
10.3477
10.3124
10.2296
10.1084
9.95593
9.77996
9.58765
9.38633
9.18145
8.97456
8.76934
8.57352
8.40496
8.29471
8.24596
8.24456
8.2689
8.28914
8.278
8.20207
8.03517
7.76173
7.44508
7.19849
7.01067
1092.73
1021.75
7.67257
8.86137
9.48686
9.84557
10.0852
10.2552
10.3694
10.4324
10.445
10.4113
10.3315
10.213
10.0624
9.88675
9.69234
9.48506
9.26978
9.04691
8.82024
8.59838
8.39937
8.25498
8.17419
8.14108
8.14476
8.1649
8.16765
8.12755
7.99928
7.77253
7.49672
7.27568
7.093
1092.79
1022.01
7.76626
8.9219
9.55378
9.92308
10.1698
10.346
10.4666
10.5366
10.5572
10.5323
10.4654
10.3607
10.2227
10.0565
9.86662
9.65733
9.43313
9.19295
8.93922
8.68077
8.43805
8.2471
8.12966
8.06929
8.05284
8.06484
8.07625
8.05372
7.95556
7.76717
7.53462
7.33968
7.15794
1092.79
1022.1
7.77437
8.92242
9.55468
9.93454
10.1925
10.3818
10.5185
10.6084
10.6506
10.6536
10.6171
10.543
10.4336
10.2914
10.1195
9.9211
9.6994
9.45399
9.18425
8.89515
8.60365
8.34511
8.15696
8.04662
7.99332
7.98196
7.9904
7.98452
7.91814
7.77083
7.56713
7.39119
7.20392
1092.74
1022.1
7.74663
8.90375
9.55065
9.93821
10.2136
10.418
10.5699
10.678
10.7472
10.7759
10.7717
10.7326
10.6583
10.5488
10.4053
10.2298
10.0252
9.79303
9.53019
9.23554
8.9155
8.5917
8.30806
8.10686
7.99417
7.93499
7.91519
7.90131
7.85875
7.75301
7.59003
7.43084
7.23634
1092.71
1021.92
7.61635
8.81408
9.5113
9.93024
10.2156
10.4304
10.5951
10.7195
10.8091
10.8672
10.8923
10.8884
10.8516
10.7794
10.6703
10.5247
10.3446
10.1329
9.88869
9.60748
9.28652
8.93275
8.57927
8.28066
8.0629
7.94263
7.88282
7.85444
7.82205
7.74698
7.61473
7.46834
7.26858
1092.72
1021.69
7.487
8.71829
9.45969
9.90942
10.2143
10.4423
10.6192
10.7575
10.8644
10.9438
10.9984
11.0261
11.0267
10.9939
10.9241
10.814
10.6637
10.4756
10.2542
9.99565
9.69401
9.34497
8.95893
8.58086
8.26014
8.02701
7.89666
7.83592
7.79941
7.73874
7.63137
7.49718
7.30112
1092.81
1021.51
7.40947
8.68337
9.4473
9.90868
10.2226
10.4551
10.6361
10.7806
10.8976
10.9927
11.0689
11.1267
11.1618
11.1673
11.1385
11.0667
10.9496
10.7887
10.5888
10.3527
10.0771
9.7546
9.37626
8.96455
8.57152
8.22598
7.98095
7.8512
7.80259
7.75088
7.66138
7.53788
7.34883
1092.96
1021.48
7.40469
8.69554
9.48556
9.96464
10.2818
10.5125
10.6908
10.8331
10.9511
11.0528
11.143
11.2233
11.2884
11.328
11.33
11.2939
11.2043
11.0642
10.877
10.6497
10.3829
10.0715
9.7075
9.31049
8.9149
8.52185
8.17894
7.94511
7.82612
7.76585
7.6849
7.57266
7.40314
1093.2
1021.56
7.54981
8.88485
9.64211
10.0869
10.3827
10.5993
10.7653
10.8974
11.0113
11.1165
11.2208
11.3284
11.43
11.5092
11.5483
11.5375
11.468
11.338
11.1515
10.917
10.6364
10.3079
9.9293
9.52654
9.13165
8.73218
8.35456
8.06329
7.89612
7.81036
7.72931
7.62679
7.4796
1093.45
1021.81
7.76928
9.08623
9.79559
10.2011
10.4718
10.6721
10.8281
10.9532
11.0619
11.1769
11.312
11.4616
11.6144
11.7463
11.8315
11.8507
11.8059
11.684
11.4916
11.2437
10.9458
10.5927
10.1841
9.75564
9.34552
8.93575
8.5338
8.1953
7.97648
7.85822
7.77087
7.67651
7.54995
1093.63
1022.28
8.07254
9.31189
9.9467
10.3049
10.5466
10.7253
10.8568
10.9654
11.0698
11.1855
11.3247
11.4871
11.6566
11.8131
11.9374
12.0121
12.0267
11.9726
11.8291
11.6056
11.2972
10.9001
10.4174
9.92147
9.46577
9.04187
8.64799
8.30934
8.07128
7.92978
7.8319
7.73944
7.62146
1093.73
1022.99
8.36764
9.47903
10.0345
10.3522
10.5718
10.7339
10.8589
10.9592
11.0499
11.1604
11.3064
11.4807
11.6636
11.8247
11.9511
12.0287
12.0514
12.0182
11.9298
11.7649
11.5143
11.1734
10.7406
10.2292
9.67808
9.13641
8.69944
8.36521
8.13073
7.98483
7.88711
7.8002
7.68442
1093.7
1023.61
8.47982
9.50475
10.0428
10.3569
10.5718
10.7237
10.8188
10.8739
10.9147
10.9773
11.0804
11.2273
11.4118
11.6041
11.7758
11.9073
11.9822
11.9939
11.9348
11.8048
11.6051
11.332
10.9675
10.5116
9.96311
9.3551
8.78817
8.41091
8.18845
8.04749
7.94651
7.85244
7.69866
1093.46
1023.64
8.47617
9.49778
10.0333
10.3474
10.5644
10.7142
10.8082
10.8602
10.8768
10.8605
10.8438
10.8594
10.9479
11.0863
11.2637
11.4493
11.607
11.7159
11.7566
11.7211
11.6032
11.404
11.1257
10.7468
10.2377
9.60698
8.96252
8.48409
8.22345
8.09084
7.99754
7.89243
7.6968
1093.2
1023.45
8.32749
9.36993
9.9352
10.2853
10.5356
10.713
10.8304
10.8774
10.8793
10.85
10.8094
10.7574
10.6841
10.6548
10.6989
10.8402
11.0062
11.1787
11.3215
11.3976
11.3977
11.3111
11.1327
10.8484
10.4276
9.85627
9.20476
8.64934
8.32002
8.15993
8.05361
7.9256
7.67566
1092.99
1023.05
8.15665
9.24858
9.85343
10.2266
10.4963
10.7018
10.8528
10.9548
10.9904
10.9715
10.9008
10.7942
10.6753
10.5593
10.4735
10.3911
10.3917
10.4896
10.669
10.8327
10.9489
10.9886
10.9364
10.7754
10.4748
10.015
9.41787
8.83933
8.45157
8.24797
8.11393
7.95686
7.66386
1092.93
1022.66
7.98655
9.11615
9.75839
10.1585
10.449
10.6745
10.8498
10.9766
11.0588
11.091
11.0789
11.0151
10.8985
10.736
10.5444
10.3602
10.2035
10.1097
10.0638
10.1372
10.2971
10.4394
10.522
10.514
10.3799
10.0611
9.57958
9.02784
8.59827
8.34462
8.1763
7.9917
7.66845
1092.95
1022.47
7.89567
9.04314
9.70984
10.1278
10.4322
10.6691
10.8526
10.9868
11.0743
11.1198
11.126
11.0971
11.0322
10.9279
10.7803
10.5886
10.3631
10.1287
9.9314
9.79069
9.74114
9.83012
9.972
10.0856
10.1166
10.0005
9.65635
9.18805
8.75166
8.45334
8.24873
8.03937
7.70223
1093.09
1022.38
7.83004
8.98445
9.66953
10.1028
10.4226
10.676
10.8778
11.0328
11.1421
11.2046
11.2218
11.1972
11.1336
11.0346
10.9034
10.7411
10.5472
10.3219
10.0744
9.82487
9.61372
9.47538
9.4855
9.625
9.76908
9.7989
9.64388
9.2959
8.89048
8.56486
8.3288
8.09914
7.75667
1093.27
1022.27
7.74595
8.92119
9.6353
10.0919
10.4209
10.683
10.8925
11.0572
11.1797
11.2599
11.2984
11.2962
11.254
11.1716
11.0502
10.892
10.7002
10.4783
10.2317
9.96817
9.69837
9.45785
9.30895
9.3048
9.41651
9.54847
9.53533
9.30991
8.98582
8.6669
8.41248
8.16738
7.82111
1093.42
1022.27
7.72256
8.89687
9.62664
10.094
10.4359
10.7071
10.9277
11.104
11.2377
11.3283
11.3756
11.3817
11.3501
11.2793
11.1715
11.0271
10.8464
10.6297
10.3798
10.104
9.80766
9.51378
9.28249
9.17624
9.19919
9.3106
9.3823
9.29993
9.0501
8.75346
8.49367
8.24091
7.89379
1093.57
1022.3
7.72018
8.89335
9.62754
10.1079
10.4588
10.7383
10.9679
11.1541
11.2998
11.4047
11.467
11.4878
11.4688
11.4084
11.3078
11.1681
10.9907
10.7764
10.5259
10.2419
9.9258
9.59487
9.30617
9.12988
9.09049
9.14893
9.24258
9.24147
9.07637
8.82347
8.57044
8.31506
7.96508
1093.68
1022.43
7.78419
8.93773
9.65729
10.1328
10.4892
10.7769
11.0125
11.2044
11.3578
11.4728
11.5483
11.5851
11.5834
11.5427
11.4594
11.3324
11.1616
10.9484
10.6944
10.4009
10.0669
9.7044
9.36587
9.12934
9.02852
9.04614
9.12418
9.16893
9.07907
8.87356
8.6395
8.38972
8.04014
1093.78
1022.55
7.82552
8.96018
9.66884
10.1442
10.5071
10.8069
11.0575
11.2651
11.4318
11.5599
11.6499
11.7032
11.7202
11.7009
11.6387
11.53
11.3707
11.1591
10.8977
10.593
10.2424
9.85124
9.46592
9.16706
9.00928
8.98887
9.04681
9.1126
9.07603
8.91313
8.70005
8.45735
8.10462
1093.83
1022.68
7.87573
8.98843
9.68113
10.1483
10.5154
10.8217
11.0805
11.2975
11.4737
11.6101
11.7075
11.7682
11.7954
11.79
11.7497
11.6703
11.545
11.3657
11.1249
10.8176
10.4424
10.0143
9.58113
9.22555
9.01701
8.95739
8.99814
9.06958
9.06742
8.94359
8.75506
8.52175
8.16102
1093.84
1022.83
7.93503
9.01027
9.68519
10.1512
10.5169
10.8271
11.0964
11.3217
11.5017
11.6394
11.7357
11.7933
11.8165
11.809
11.7711
11.7014
11.5952
11.4454
11.243
10.9781
10.6332
10.1964
9.7006
9.28079
9.02876
8.94336
8.97733
9.05455
9.06934
8.96884
8.79803
8.56883
8.1865
1093.74
1022.94
7.9571
9.01348
9.67859
10.1389
10.5085
10.8255
11.0977
11.3322
11.5319
11.6848
11.7921
11.8564
11.8813
11.871
11.8276
11.7522
11.6427
11.4944
11.3009
11.0545
10.7377
10.3309
9.83751
9.35025
9.04838
8.93719
8.96402
9.03966
9.06893
8.98912
8.83362
8.60601
8.19707
1093.62
1022.97
7.95904
9.00071
9.64498
10.0972
10.4701
10.7986
11.0882
11.3371
11.5455
11.7096
11.8276
11.9005
11.9312
11.923
11.8792
11.8017
11.6906
11.543
11.3542
11.1167
10.8153
10.4307
9.9573
9.45984
9.09881
8.94618
8.95733
9.0287
9.06559
9.00112
8.85765
8.63269
8.20064
1093.52
1022.97
7.95169
8.97622
9.60889
10.0551
10.4277
10.7605
11.0598
11.3236
11.5461
11.7311
11.8679
11.9566
11.9993
11.9987
11.9582
11.8804
11.767
11.6175
11.4288
11.1936
10.8978
10.5224
10.0576
9.55191
9.15082
8.9661
8.95633
9.02474
9.06151
9.00919
8.87639
8.65419
8.20466
1093.46
1022.94
7.93197
8.94822
9.56792
10.0047
10.3772
10.7146
11.0235
11.302
11.5448
11.7459
11.9004
12.0068
12.0656
12.0785
12.0489
11.9781
11.8697
11.7245
11.5418
11.3154
11.032
10.6719
10.2173
9.69632
9.23336
8.99103
8.95812
9.01441
9.05503
9.01209
8.89082
8.67456
8.21892
1093.47
1022.94
7.92901
8.92932
9.53322
9.9589
10.3286
10.6682
10.9847
11.2753
11.5332
11.7496
11.9267
12.0525
12.128
12.1548
12.1356
12.0726
11.9696
11.8295
11.654
11.4387
11.1739
10.8426
10.4257
9.93512
9.44523
9.08231
8.97437
9.01432
9.05379
9.01837
8.90504
8.69521
8.24222
1093.55
1022.97
7.93111
8.91473
9.50052
9.91304
10.2758
10.6145
10.9368
11.2396
11.5143
11.7512
11.9445
12.0935
12.1892
12.2332
12.2275
12.1746
12.078
11.9419
11.77
11.5602
11.3064
10.9951
10.6093
10.155
9.67414
9.2522
9.03799
9.02715
9.05959
9.03185
8.92547
8.72394
8.28479
1093.69
1023.02
7.93845
8.90025
9.46545
9.86254
10.2138
10.5479
10.8722
11.1846
11.4752
11.7314
11.9419
12.1068
12.2226
12.2846
12.2939
12.254
12.1655
12.0343
11.8644
11.6574
11.4115
11.1183
10.7647
10.3556
9.89755
9.43834
9.13449
9.0584
9.07105
9.04429
8.94542
8.74917
8.31357
1093.73
1023.05
7.94094
8.88514
9.43185
9.81295
10.1506
10.4759
10.7978
11.1154
11.4186
11.693
11.9256
12.1085
12.2451
12.3262
12.3513
12.3222
12.2395
12.1084
11.9324
11.7148
11.4576
11.158
10.8205
10.448
10.0353
9.59843
9.26105
9.12582
9.10825
9.07142
8.96872
8.76721
8.31305
1093.69
1023.08
7.94228
8.86945
9.39706
9.76099
10.0826
10.3959
10.7114
11.0306
11.3436
11.6343
11.8875
12.0936
12.2467
12.3506
12.3951
12.3804
12.307
12.1774
11.9924
11.7555
11.4712
11.1422
10.7757
10.3992
10.0193
9.64266
9.35437
9.20933
9.1622
9.1033
8.98912
8.77258
8.29203
1093.48
1023.09
7.93706
8.85189
9.3632
9.71036
10.0142
10.3113
10.6141
10.9276
11.2446
11.5484
11.8217
12.0521
12.2317
12.3555
12.4279
12.4362
12.3813
12.2616
12.0752
11.823
11.5068
11.13
10.7043
10.2747
9.89893
9.59708
9.36924
9.24537
9.18818
9.11684
8.99527
8.76842
8.24506
1093.29
1023.06
7.92219
8.82946
9.32751
9.65968
9.94606
10.2247
10.5095
10.8096
11.1227
11.4341
11.7249
11.9796
12.1879
12.3431
12.4407
12.4859
12.4631
12.3706
12.2043
11.961
11.6395
11.2392
10.7646
10.2638
9.82814
9.51765
9.34142
9.25545
9.20741
9.13164
9.00406
8.77105
8.24388
1093.25
1023.01
7.90273
8.80648
9.29464
9.61446
9.88472
10.1438
10.4077
10.6876
10.9876
11.2983
11.601
11.8771
12.1131
12.3005
12.4343
12.5106
12.534
12.4851
12.362
12.1579
11.8674
11.4825
10.9919
10.4108
9.85459
9.50124
9.33148
9.26457
9.21856
9.1398
9.00934
8.7759
8.24685
1093.3
1022.96
7.88343
8.78255
9.26406
9.5753
9.83211
10.0723
10.314
10.5694
10.849
11.1504
11.4575
11.7493
12.0087
12.225
12.3927
12.5085
12.567
12.5721
12.5111
12.3715
12.1519
11.8422
11.4278
10.8932
10.2531
9.63822
9.32927
9.26061
9.23299
9.1634
9.03436
8.80587
8.30268
1093.61
1022.95
7.86776
8.76049
9.23726
9.54276
9.78919
10.0126
10.2313
10.4608
10.7142
10.998
11.3016
11.6028
11.8799
12.1186
12.3123
12.4571
12.5493
12.5867
12.5702
12.4984
12.3587
12.1444
11.8449
11.4288
10.8641
10.1915
9.60227
9.31107
9.23954
9.18338
9.06708
8.85376
8.40091
1094.04
1022.98
7.85613
8.73976
9.21428
9.51718
9.75635
9.96618
10.1638
10.3671
10.5916
10.8488
11.1376
11.4405
11.7302
11.9866
12.1997
12.3642
12.4785
12.543
12.5587
12.5265
12.4427
12.3063
12.1037
11.8025
11.3632
10.7661
10.0954
9.57559
9.32297
9.20832
9.09093
8.89953
8.49015
1094.23
1023.01
7.84085
8.71646
9.19157
9.49499
9.73062
9.93055
10.1099
10.286
10.4786
10.7037
10.9681
11.2633
11.561
11.8323
12.061
12.2381
12.3626
12.4366
12.4638
12.4484
12.3908
12.2898
12.1342
11.9015
11.5579
11.0697
10.4508
9.86774
9.50075
9.30771
9.15292
8.94031
8.51034
1094.19
1023.02
7.81311
8.68698
9.1672
9.47525
9.71215
9.9065
10.0702
10.2193
10.3745
10.5602
10.791
11.066
11.3651
11.6511
11.8966
12.087
12.2194
12.2964
12.3229
12.3051
12.2482
12.1551
12.0221
11.8247
11.5251
11.0897
10.5661
10.0267
9.63692
9.3979
9.20892
8.96316
8.48143
1093.77
1022.98
7.77156
8.64868
9.13735
9.45436
9.69789
9.89462
10.0533
10.1809
10.2972
10.4361
10.6171
10.8578
11.1435
11.4409
11.7069
11.9172
12.0644
12.1494
12.1764
12.1525
12.0839
11.9752
11.8266
11.6315
11.3715
11.0248
10.5711
10.1065
9.73638
9.47722
9.25683
8.96594
8.39459
1093.43
1022.91
7.72105
8.60506
9.10369
9.43135
9.68516
9.88964
10.0519
10.1773
10.2751
10.3561
10.4724
10.6519
10.9056
11.2013
11.4905
11.7308
11.9052
12.0112
12.0509
12.0313
11.9573
11.8324
11.6593
11.4438
11.1901
10.8926
10.5392
10.1582
9.81943
9.54886
9.30563
8.98608
8.38576
1093.37
1022.8
7.65766
8.55206
9.06379
9.40446
9.6713
9.88792
10.0591
10.1859
10.275
10.3415
10.3987
10.4929
10.6777
10.945
11.2436
11.5172
11.7316
11.8754
11.949
11.9566
11.9018
11.7862
11.6098
11.3794
11.1134
10.8318
10.5292
10.1956
9.87913
9.60432
9.3503
9.0179
8.39102
1093.42
1022.7
7.59625
8.50003
9.02476
9.37893
9.66025
9.89257
10.078
10.2161
10.308
10.3618
10.3954
10.434
10.513
10.7084
10.9855
11.2777
11.5314
11.7202
11.8391
11.8899
11.8746
11.7912
11.635
11.4061
11.1252
10.8332
10.5313
10.2291
9.93355
9.66228
9.40433
9.07135
8.45509
1093.65
1022.6
7.53291
8.44585
8.98466
9.35289
9.64884
9.89649
10.0982
10.2526
10.3575
10.4145
10.4314
10.4318
10.4557
10.5314
10.7381
11.0174
11.2974
11.5295
11.6957
11.7941
11.8257
11.7876
11.6729
11.4771
11.2016
10.8798
10.5646
10.2627
9.97522
9.70537
9.44727
9.12099
8.52634
1093.85
1022.51
7.47007
8.392
8.94634
9.32917
9.63987
9.90393
10.124
10.2978
10.4214
10.4923
10.5125
10.4916
10.4609
10.4724
10.5569
10.7707
11.0455
11.3081
11.5173
11.6608
11.7382
11.7462
11.6751
11.5224
11.2888
10.9839
10.6534
10.3335
10.0357
9.75959
9.50104
9.18078
8.598
1093.95
1022.42
7.40661
8.33955
8.90859
9.30446
9.62865
9.90815
10.1461
10.34
10.4851
10.5765
10.6111
10.5965
10.543
10.4907
10.4984
10.5942
10.8112
11.0732
11.3123
11.4955
11.6136
11.6628
11.6375
11.5199
11.3144
11.0452
10.7246
10.3922
10.0791
9.79796
9.53852
9.21602
8.62823
1093.94
1022.35
7.35369
8.29552
8.87688
9.28481
9.62243
9.91775
10.1742
10.3892
10.5571
10.6711
10.7259
10.7245
10.675
10.5947
10.529
10.539
10.6496
10.867
11.1104
11.3208
11.4685
11.5449
11.5459
11.4663
11.2982
11.0489
10.7571
10.4374
10.1274
9.84397
9.58013
9.25328
8.65658
1093.91
1022.28
7.3056
8.25324
8.84465
9.26337
9.61367
9.92432
10.1989
10.4347
10.6253
10.7624
10.8415
10.8601
10.823
10.7453
10.6486
10.5804
10.5987
10.7248
10.9366
11.1581
11.3313
11.4332
11.4563
11.3964
11.2517
11.0383
10.7715
10.4712
10.1672
9.88201
9.61623
9.28778
8.68158
1093.91
1022.23
7.26948
8.21915
8.81694
9.2447
9.60713
9.93324
10.2264
10.4839
10.6969
10.8564
10.9568
10.9955
10.9749
10.9045
10.8048
10.7035
10.647
10.6878
10.8358
11.0403
11.2255
11.3479
11.39
11.3556
11.2382
11.0416
10.7862
10.4971
10.1991
9.9157
9.65007
9.32054
8.71154
1094.03
1022.22
7.24228
8.18916
8.78964
9.22466
9.59834
9.93962
10.2516
10.531
10.7661
10.9476
11.0692
11.1271
11.122
11.0613
10.9613
10.8456
10.7487
10.7254
10.8067
10.9839
11.1766
11.3242
11.3965
11.3817
11.2809
11.1027
10.8542
10.5647
10.2627
9.9724
9.7008
9.37625
8.79541
1094.33
1022.23
7.22744
8.16528
8.76454
9.20497
9.58905
9.94506
10.2781
10.5793
10.8358
11.038
11.1792
11.255
11.2643
11.2139
11.113
10.9845
10.855
10.777
10.8037
10.9468
11.1393
11.3086
11.4089
11.4324
11.3687
11.2079
10.962
10.6596
10.341
10.0353
9.75484
9.43282
8.87668
1094.54
1022.27
7.22018
8.14117
8.73514
9.17941
9.5739
9.9448
10.2996
10.6214
10.8992
11.1223
11.2831
11.3758
11.3984
11.3567
11.2576
11.1166
10.9587
10.8338
10.8112
10.9121
11.1034
11.2917
11.4211
11.4765
11.4501
11.3221
11.0919
10.7813
10.44
10.1146
9.82289
9.49095
8.93517
1094.56
1022.32
7.21052
8.11231
8.6984
9.14438
9.54824
9.93526
10.3033
10.6483
10.9515
11.1977
11.3807
11.4929
11.53
11.4967
11.3993
11.247
11.0556
10.8705
10.7759
10.8359
11.0217
11.2312
11.3914
11.4686
11.4696
11.3809
11.1792
10.879
10.5325
10.1976
9.89204
9.5395
8.94558
1094.43
1022.34
7.19364
8.07513
8.65071
9.09555
9.50628
9.90833
10.294
10.6503
10.9723
11.2512
11.4623
11.5999
11.659
11.6434
11.5577
11.4047
11.1919
10.9521
10.7687
10.7513
10.8994
11.1232
11.3183
11.4437
11.4696
11.3859
11.2105
10.9311
10.5964
10.2644
9.94828
9.56884
8.92804
1094.18
1022.35
7.1668
8.0304
8.59475
9.03555
9.44928
9.85797
10.2567
10.6344
10.9765
11.2756
11.5213
11.6883
11.7762
11.7878
11.7247
11.5839
11.3658
11.087
10.8132
10.6759
10.7464
10.9517
11.1774
11.3461
11.4174
11.3771
11.2124
10.9685
10.657
10.3319
10.0055
9.59562
8.89195
1093.98
1022.32
7.13197
7.97897
8.53049
8.96389
9.37596
9.78582
10.1915
10.5843
10.9507
11.2736
11.5412
11.7484
11.8742
11.9243
11.8965
11.7863
11.5887
11.3047
10.9684
10.6926
10.6246
10.7575
10.9799
11.1864
11.3075
11.3148
11.2019
10.982
10.699
10.3879
10.0589
9.63293
8.89231
1093.93
1022.28
7.09441
7.92711
8.4651
8.88826
9.29307
9.69891
10.1057
10.5066
10.8898
11.2399
11.5388
11.7688
11.9371
12.0288
12.0434
11.9768
11.8219
11.5717
11.233
10.8703
10.6315
10.6191
10.7826
11.0032
11.1694
11.2269
11.1601
10.9752
10.725
10.4314
10.1064
9.6724
8.90642
1093.95
1022.24
7.05583
7.8749
8.40021
8.8132
9.20877
9.60718
10.0102
10.4127
10.8048
11.1722
11.4977
11.7626
11.9595
12.0954
12.1536
12.1342
12.0316
11.8376
11.5476
11.1842
10.8242
10.6243
10.6442
10.812
10.9995
11.1077
11.0977
10.971
10.7508
10.4766
10.1604
9.72723
8.95718
1094.09
1022.2
7.02306
7.82739
8.33862
8.73832
9.12194
9.51009
9.90587
10.3063
10.7033
11.0838
11.4304
11.724
11.9551
12.1191
12.2193
12.2442
12.1949
12.0635
11.8455
11.5429
11.1769
10.8292
10.6618
10.718
10.8603
10.9867
11.02
10.9433
10.76
10.5135
10.2137
9.79184
9.03177
1094.29
1022.18
6.9946
7.78605
8.28593
8.67476
9.04649
9.4225
9.80744
10.2005
10.5963
10.9836
11.3459
11.663
11.922
12.1166
12.2426
12.3034
12.2941
12.2119
12.0532
11.8145
11.4953
11.1399
10.8593
10.7573
10.8222
10.9149
10.9595
10.9122
10.7621
10.5414
10.2616
9.85724
9.11477
1094.45
1022.17
6.9662
7.74599
8.23512
8.61273
8.97129
9.33376
9.70555
10.0875
10.4767
10.8645
11.2358
11.5705
11.8516
12.0713
12.2246
12.3102
12.3301
12.2842
12.1682
11.9786
11.7082
11.3764
11.061
10.8728
10.8381
10.8921
10.9233
10.8874
10.7606
10.5598
10.2967
9.90649
9.17239
1094.5
1022.14
6.93985
7.71158
8.19291
8.5622
8.91048
9.26055
9.61871
9.98753
10.3665
10.75
11.125
11.4714
11.7698
12.0103
12.1858
12.2939
12.3359
12.3139
12.2273
12.0713
11.8385
11.5403
11.2305
11.0026
10.9064
10.904
10.9196
10.8772
10.7595
10.5739
10.3252
9.94588
9.21193
1094.49
1022.11
6.9093
7.67542
8.15002
8.51146
8.85004
9.18799
9.53206
9.88613
10.2521
10.6274
11.0017
11.3562
11.6699
11.9313
12.1307
12.2636
12.3303
12.3335
12.2743
12.1467
11.9434
11.6726
11.3776
11.1371
10.9996
10.9511
10.9297
10.8787
10.763
10.5856
10.3454
9.97079
9.22719
1094.44
1022.08
6.88029
7.64457
8.11468
8.47012
8.80092
9.12846
9.45927
9.79797
10.1487
10.5123
10.8816
11.2394
11.5644
11.8433
12.0641
12.2202
12.311
12.3384
12.303
12.1995
12.0218
11.7761
11.4991
11.2583
11.0975
11.014
10.9624
10.8922
10.7719
10.597
10.3618
9.99108
9.24433
1094.42
1022.02
6.84719
7.61134
8.07786
8.42793
8.75156
9.06953
9.38765
9.71076
10.0449
10.3943
10.7564
11.116
11.4526
11.7512
11.9968
12.18
12.2984
12.3519
12.3398
12.2581
12.1016
11.8743
11.6087
11.3673
11.1933
11.0861
11.0095
10.9199
10.7901
10.6131
10.3795
10.0121
9.26512
1094.43
1021.97
6.81822
7.58409
8.04848
8.39477
8.71302
9.02313
9.32973
9.63716
9.95243
10.2829
10.6311
10.9858
11.3295
11.6467
11.9191
12.1339
12.2857
12.3714
12.3882
12.3324
12.1997
11.9913
11.7315
11.4775
11.2794
11.1484
11.0528
10.9499
10.8127
10.6324
10.3985
10.0325
9.28459
1094.49
1021.92
6.79072
7.55697
8.01957
8.36308
8.67732
8.98143
9.27873
9.57276
9.87081
10.1822
10.5135
10.8584
11.2035
11.5353
11.834
12.0822
12.2709
12.394
12.4463
12.4242
12.3236
12.1439
11.8998
11.6362
11.4093
11.2421
11.1179
10.9965
10.849
10.6635
10.4285
10.0671
9.33176
1094.67
1021.89
6.77183
7.53717
7.99807
8.33986
8.65171
8.95137
9.24074
9.52243
9.80355
10.0946
10.4052
10.7343
11.0739
11.4142
11.7352
12.0151
12.24
12.4017
12.4956
12.5138
12.4542
12.3122
12.0965
11.8347
11.5789
11.3732
11.2125
11.0658
10.9029
10.7085
10.47
10.112
9.39367
1094.9
1021.88
6.7567
7.51825
7.97717
8.318
8.62873
8.92584
9.20982
9.48233
9.74993
10.0232
10.3134
10.6225
10.9483
11.2863
11.6197
11.9254
12.1824
12.3794
12.5073
12.5679
12.5514
12.4533
12.2774
12.0356
11.7658
11.5214
11.3238
11.1503
10.9697
10.7638
10.5186
10.1606
9.46037
1095.09
1021.88
6.74892
7.5052
7.96173
8.30222
8.61288
8.90816
9.18715
9.45081
9.7056
9.96257
10.2344
10.5253
10.8371
11.1688
11.5058
11.8253
12.1033
12.327
12.4889
12.5793
12.6049
12.5551
12.4248
12.2196
11.9627
11.6994
11.4659
11.2589
11.0545
10.8336
10.578
10.2114
9.51019
1095.16
1021.89
6.74022
7.48909
7.94349
8.28467
8.59679
8.89195
9.16774
9.42406
9.6668
9.90697
10.1581
10.4269
10.7202
11.0414
11.3761
11.7026
12
12.2488
12.4372
12.5606
12.611
12.6001
12.5154
12.3508
12.1212
11.8613
11.6091
11.3756
11.1477
10.9083
10.6349
10.247
9.52267
1095.14
1021.89
6.73075
7.47345
7.92618
8.26864
8.58318
8.87923
9.15302
9.40369
9.63675
9.86278
10.0952
10.3412
10.6113
10.9139
11.2398
11.5709
11.882
12.1481
12.357
12.5054
12.5919
12.6084
12.5577
12.4313
12.2344
11.9917
11.7368
11.4877
11.2416
10.9851
10.6926
10.2795
9.52189
1095.05
1021.89
6.7178
7.45382
7.90509
8.24959
8.56765
8.86582
9.13863
9.38455
9.60899
9.82246
10.0384
10.2638
10.5116
10.794
11.1077
11.4382
11.7558
12.0332
12.2574
12.4252
12.5356
12.5843
12.5607
12.4733
12.3103
12.0922
11.8465
11.5926
11.3345
11.062
10.7476
10.3039
9.50062
1094.94
1021.88
6.70302
7.43317
7.88327
8.23038
8.55281
8.85399
9.1267
9.36869
9.58557
9.78784
9.98888
10.1955
10.4216
10.6824
10.9797
11.304
11.6224
11.9064
12.1421
12.3259
12.4581
12.5337
12.5447
12.4784
12.3522
12.1632
11.9338
11.6828
11.418
11.1322
10.7985
10.3294
9.49089
1094.87
1021.87
6.68692
7.40917
7.85778
8.20852
8.53689
8.84214
9.11571
9.35399
9.56426
9.75643
9.94422
10.1354
10.3438
10.5857
10.8659
11.179
11.4923
11.7781
12.0209
12.2163
12.3651
12.4621
12.4992
12.4709
12.3706
12.2092
11.9999
11.7576
11.4916
11.1975
10.8498
10.3591
9.49252
1094.87
1021.87
6.67516
7.38598
7.83225
8.18773
8.52408
8.83585
9.11183
9.34724
9.54694
9.72635
9.89905
10.0752
10.2692
10.4981
10.7666
11.0704
11.3785
11.6645
11.9122
12.1167
12.2776
12.3901
12.4478
12.444
12.3734
12.24
12.0524
11.822
11.5585
11.2604
10.9044
10.398
9.51236
1094.94
1021.89
6.66927
7.3626
7.80541
8.16717
8.51342
8.83312
9.11329
9.3455
9.53694
9.70191
9.85603
10.0134
10.1929
10.4126
10.6774
10.9803
11.2875
11.5731
11.8226
12.0326
12.2016
12.3259
12.4003
12.4178
12.371
12.2649
12.0972
11.8794
11.6216
11.3241
10.9655
10.4499
9.55335
1095.02
1021.93
6.66392
7.33581
7.77459
8.14381
8.50245
8.83469
9.11993
9.35087
9.53309
9.6817
9.81351
9.94585
10.1045
10.3127
10.5792
10.893
11.2102
11.5023
11.7565
11.9714
12.1456
12.2767
12.3613
12.3929
12.366
12.2744
12.1243
11.9198
11.6701
11.3759
11.0168
10.4936
9.57993
1095.02
1021.98
6.65617
7.30363
7.73812
8.11637
8.4902
8.83811
9.13395
9.3672
9.54268
9.67428
9.77748
9.87545
10.0001
10.1841
10.443
10.7694
11.1067
11.417
11.6853
11.9117
12.0943
12.2326
12.3246
12.3649
12.35
12.2744
12.1388
11.9474
11.7068
11.4177
11.0586
10.5279
9.59672
1094.97
1022.01
6.64068
7.265
7.69524
8.08267
8.47373
8.84017
9.15449
9.39685
9.5711
9.68985
9.7673
9.8228
9.89216
10.0309
10.2644
10.5948
10.9526
11.289
11.5831
11.8318
12.0316
12.1831
12.2864
12.3362
12.3326
12.2676
12.1396
11.9575
11.7275
11.4461
11.0897
10.5545
9.59807
1094.87
1022.03
6.61399
7.21922
7.64508
8.04094
8.45134
8.84238
9.18067
9.44018
9.62213
9.73546
9.79285
9.81321
9.82996
9.88905
10.0689
10.3854
10.7576
11.1159
11.4373
11.7171
11.9465
12.1221
12.2423
12.3026
12.3056
12.2466
12.1283
11.9547
11.7311
11.4556
11.1036
10.5662
9.5899
1094.71
1022.02
6.57696
7.16944
7.58966
7.99044
8.41991
8.84139
9.20826
9.49283
9.69407
9.8161
9.86459
9.85961
9.82233
9.80781
9.88495
10.1289
10.4779
10.8488
11.1963
11.5015
11.7598
11.9672
12.1189
12.21
12.2371
12.2008
12.1018
11.9429
11.7303
11.4616
11.1128
10.5713
9.57517
1094.57
1021.98
6.53296
7.1189
7.53192
7.93179
8.37376
8.82065
9.2189
9.54413
9.77869
9.92661
9.99055
9.98877
9.93298
9.86447
9.86424
10.0204
10.3067
10.6442
10.9818
11.2965
11.5707
11.7972
11.9711
12.0874
12.1391
12.1264
12.0474
11.9069
11.711
11.4573
11.1189
10.5848
9.57884
1094.51
1021.91
6.48568
7.07112
7.47672
7.8708
8.31913
8.78886
9.22397
9.58707
9.85908
10.0433
10.145
10.1663
10.1203
10.0297
9.95836
9.99158
10.1842
10.4736
10.7922
11.1055
11.3908
11.6349
11.8293
11.9671
12.0424
12.052
11.9948
11.8735
11.6931
11.4532
11.1302
10.6158
9.61916
1094.52
1021.82
6.43704
7.02775
7.42702
7.81069
8.25483
8.73501
9.19724
9.59731
9.91812
10.151
10.3009
10.3653
10.3572
10.2823
10.167
10.08
10.1303
10.3273
10.6128
10.9207
11.2132
11.4711
11.6848
11.8455
11.9454
11.9792
11.946
11.8434
11.6785
11.4533
11.1453
10.648
9.66725
1094.62
1021.73
6.39271
6.99257
7.38909
7.76324
8.19861
8.67979
9.16081
9.59467
9.95427
10.234
10.4351
10.56
10.6061
10.5817
10.4938
10.3603