/*--------------------------------*- C++ -*----------------------------------*\
| =========                 |                                                 |
| \\      /  F ield         | OpenFOAM: The Open Source CFD Toolbox           |
|  \\    /   O peration     | Version:  2.0.x                                 |
|   \\  /    A nd           | Web:      www.OpenFOAM.org                      |
|    \\/     M anipulation  |                                                 |
\*---------------------------------------------------------------------------*/
FoamFile
{
    version     2.0;
    format      ascii;
    class       surfaceScalarField;
    location    "800";
    object      phi;
}
// * * * * * * * * * * * * * * * * * * * * * * * * * * * * * * * * * * * * * //

dimensions      [1 0 -1 0 0 0 0];

internalField   nonuniform List<scalar> 
228225
(
-2.40927e-06
1.47372e-06
8.54168e-07
-6.29854e-06
2.24273e-06
1.6465e-06
-1.01416e-05
1.95351e-06
1.88954e-06
-1.34024e-05
1.36495e-06
1.89578e-06
-1.57549e-05
5.3325e-07
1.81918e-06
-1.68835e-05
-6.07726e-07
1.73629e-06
-1.7063e-05
-1.49782e-06
1.67724e-06
-1.62019e-05
-2.50583e-06
1.6447e-06
-1.43106e-05
-3.50829e-06
1.61692e-06
-1.13135e-05
-4.57576e-06
1.57857e-06
-7.45082e-06
-5.40877e-06
1.54605e-06
-3.12765e-06
-5.8449e-06
1.52167e-06
1.38492e-06
-6.01715e-06
1.50453e-06
5.93003e-06
-6.0351e-06
1.48994e-06
1.04809e-05
-5.98004e-06
1.42915e-06
1.4843e-05
-5.75256e-06
1.39038e-06
1.88909e-05
-5.42142e-06
1.37346e-06
2.25541e-05
-5.03932e-06
1.37614e-06
2.57457e-05
-4.61097e-06
1.41929e-06
2.84526e-05
-4.1731e-06
1.4662e-06
3.06633e-05
-3.73059e-06
1.51986e-06
3.23885e-05
-3.30383e-06
1.57854e-06
3.35496e-05
-2.8063e-06
1.64525e-06
3.4204e-05
-2.36128e-06
1.70683e-06
3.43925e-05
-1.94901e-06
1.7605e-06
3.40184e-05
-1.44095e-06
1.81501e-06
3.30764e-05
-9.25259e-07
1.86729e-06
3.15131e-05
-3.54577e-07
1.91789e-06
2.91697e-05
3.75457e-07
1.96789e-06
2.62483e-05
9.09805e-07
2.01167e-06
2.25497e-05
1.64437e-06
2.05422e-06
1.80167e-05
2.43104e-06
2.10195e-06
1.24529e-05
3.39126e-06
2.17264e-06
5.84264e-06
4.49778e-06
2.11251e-06
4.63923e-06
1.2034e-06
1.02392e-06
-6.9109e-09
4.56661e-07
2.0188e-06
2.24125e-07
1.02368e-06
2.79959e-06
-1.17257e-07
1.28993e-06
3.77828e-06
-9.84261e-07
1.37046e-06
5.25117e-06
-2.30626e-06
1.36657e-06
7.16287e-06
-3.8504e-06
1.33093e-06
9.46253e-06
-5.08638e-06
1.28888e-06
1.20837e-05
-6.36668e-06
1.2396e-06
1.49076e-05
-7.43518e-06
1.10304e-06
1.75542e-05
-8.20561e-06
9.83185e-07
1.99773e-05
-8.71254e-06
8.80669e-07
2.21567e-05
-8.82406e-06
7.99762e-07
2.41174e-05
-8.70833e-06
7.30479e-07
2.5849e-05
-8.45363e-06
6.86904e-07
2.73041e-05
-8.1318e-06
6.96651e-07
2.84607e-05
-7.62781e-06
7.18666e-07
2.93581e-05
-7.06248e-06
7.4365e-07
3.00294e-05
-6.47595e-06
7.65337e-07
3.05237e-05
-5.88299e-06
7.77717e-07
3.0839e-05
-5.28448e-06
7.96056e-07
3.09615e-05
-4.67785e-06
8.24726e-07
3.08513e-05
-4.05896e-06
8.65424e-07
3.05668e-05
-3.43761e-06
9.15753e-07
3.0014e-05
-2.79319e-06
9.84676e-07
2.91477e-05
-2.13506e-06
1.05236e-06
2.80379e-05
-1.43606e-06
1.10492e-06
2.6593e-05
-6.56262e-07
1.17593e-06
2.46731e-05
3.0231e-07
1.26294e-06
2.247e-05
1.20606e-06
1.37251e-06
1.98195e-05
2.08105e-06
1.47922e-06
1.67098e-05
3.16613e-06
1.58792e-06
1.29002e-05
4.53698e-06
1.70367e-06
8.20951e-06
6.28764e-06
1.79426e-06
3.2621e-06
7.74861e-06
1.69653e-06
6.93684e-06
9.64497e-07
3.15563e-08
-5.03722e-07
4.65077e-07
1.51559e-06
-2.17336e-06
9.13257e-07
4.43276e-06
-4.09144e-06
1.05682e-06
8.33676e-06
-5.95494e-06
1.06652e-06
1.25787e-05
-7.56661e-06
1.01824e-06
1.66075e-05
-8.81463e-06
9.35338e-07
2.03632e-05
-9.69232e-06
8.50151e-07
2.35141e-05
-1.02597e-05
7.4197e-07
2.59256e-05
-1.0537e-05
6.90311e-07
2.74867e-05
-1.03977e-05
6.30959e-07
2.82983e-05
-1.01247e-05
6.00485e-07
2.86332e-05
-9.72566e-06
5.66627e-07
2.86419e-05
-9.26738e-06
5.50318e-07
2.84265e-05
-8.77272e-06
5.34482e-07
2.80373e-05
-8.25702e-06
5.1436e-07
2.76298e-05
-7.72349e-06
5.03122e-07
2.72346e-05
-7.17046e-06
5.03115e-07
2.68431e-05
-6.59869e-06
5.14186e-07
2.6452e-05
-6.02123e-06
5.29403e-07
2.60296e-05
-5.41603e-06
5.53861e-07
2.55447e-05
-4.77976e-06
5.8682e-07
2.4965e-05
-4.10845e-06
6.2914e-07
2.42419e-05
-3.39749e-06
6.82984e-07
2.33599e-05
-2.65304e-06
7.41855e-07
2.23295e-05
-1.89238e-06
7.87686e-07
2.10963e-05
-1.05222e-06
8.49385e-07
1.95788e-05
-6.50768e-08
9.26228e-07
1.79754e-05
8.8066e-07
1.02512e-06
1.62701e-05
1.78592e-06
1.12545e-06
1.41999e-05
2.9105e-06
1.24077e-06
1.17577e-05
4.22433e-06
1.38399e-06
8.77606e-06
6.00419e-06
1.51446e-06
5.22773e-06
8.23662e-06
1.59938e-06
1.93399e-06
9.56376e-06
1.47861e-06
8.08107e-06
7.89753e-07
5.93923e-07
-1.42018e-06
3.22407e-07
2.76128e-06
-4.93368e-06
5.92835e-07
5.96533e-06
-7.97172e-06
6.76128e-07
9.39957e-06
-1.00627e-05
6.73405e-07
1.25053e-05
-1.12861e-05
6.1369e-07
1.50684e-05
-1.18873e-05
5.09494e-07
1.7021e-05
-1.20779e-05
4.32946e-07
1.83925e-05
-1.19812e-05
3.50041e-07
1.92467e-05
-1.16983e-05
3.06974e-07
1.98575e-05
-1.12478e-05
2.39344e-07
2.01912e-05
-1.06293e-05
1.70901e-07
2.03529e-05
-9.9996e-06
1.12189e-07
2.04271e-05
-9.40095e-06
5.9311e-08
2.04299e-05
-8.80385e-06
2.82848e-08
2.03768e-05
-8.2149e-06
1.09677e-08
2.02796e-05
-7.63146e-06
5.1624e-09
2.01434e-05
-7.04445e-06
1.01908e-08
1.99612e-05
-6.44295e-06
2.64387e-08
1.97032e-05
-5.81829e-06
5.50339e-08
1.9358e-05
-5.16692e-06
9.60982e-08
1.89174e-05
-4.48894e-06
1.49762e-07
1.83949e-05
-3.78851e-06
2.02492e-07
1.77965e-05
-3.06285e-06
2.63768e-07
1.71115e-05
-2.30529e-06
3.37197e-07
1.63076e-05
-1.50142e-06
4.12861e-07
1.53458e-05
-5.90291e-07
4.99818e-07
1.42226e-05
4.55216e-07
6.02875e-07
1.31719e-05
1.22608e-06
7.05273e-07
1.18434e-05
2.29114e-06
8.23175e-07
1.03138e-05
3.47471e-06
9.65329e-07
8.46264e-06
4.97346e-06
1.10196e-06
6.14613e-06
7.06438e-06
1.25623e-06
3.43161e-06
9.55198e-06
1.39907e-06
1.05144e-06
1.06523e-05
1.29155e-06
8.49992e-06
6.3259e-07
1.03022e-06
-2.69686e-06
2.46234e-07
3.48629e-06
-7.90248e-06
5.1254e-07
6.19914e-06
-1.13318e-05
6.47093e-07
8.50871e-06
-1.30381e-05
6.65723e-07
1.03445e-05
-1.3717e-05
5.95077e-07
1.17931e-05
-1.38596e-05
5.23665e-07
1.29899e-05
-1.37089e-05
4.34157e-07
1.39616e-05
-1.32984e-05
3.45436e-07
1.46647e-05
-1.26582e-05
2.5676e-07
1.50928e-05
-1.18445e-05
1.68499e-07
1.52843e-05
-1.09079e-05
8.71264e-08
1.52763e-05
-9.99508e-06
3.38315e-09
1.51464e-05
-9.18872e-06
-8.23362e-08
1.49629e-05
-8.45879e-06
-1.61574e-07
1.47556e-05
-7.78997e-06
-2.17679e-07
1.45336e-05
-7.15737e-06
-2.52127e-07
1.42924e-05
-6.53617e-06
-2.67113e-07
1.40219e-05
-5.90764e-06
-2.64843e-07
1.37112e-05
-5.26058e-06
-2.47111e-07
1.33525e-05
-4.59283e-06
-2.15394e-07
1.29544e-05
-3.9196e-06
-1.71205e-07
1.25265e-05
-3.24421e-06
-1.16506e-07
1.20827e-05
-2.55597e-06
-6.31061e-08
1.161e-05
-1.83425e-06
1.62767e-09
1.10817e-05
-1.04672e-06
7.3587e-08
1.05084e-05
-1.71561e-07
1.54588e-07
1.00227e-05
6.93635e-07
2.47228e-07
9.38353e-06
1.52237e-06
3.42854e-07
8.64126e-06
2.57314e-06
4.60254e-07
7.65413e-06
3.86039e-06
6.0142e-07
6.28764e-06
5.56144e-06
7.78476e-07
4.44875e-06
7.9337e-06
9.69533e-07
2.41995e-06
1.04851e-05
1.09561e-06
6.47434e-07
1.14074e-05
1.01732e-06
8.68149e-06
4.6585e-07
1.03626e-06
-3.95653e-06
2.23218e-07
2.72731e-06
-1.01325e-05
5.38828e-07
4.13105e-06
-1.34355e-05
6.99834e-07
5.11162e-06
-1.47206e-05
7.01843e-07
5.87781e-06
-1.50969e-05
6.13652e-07
6.55012e-06
-1.50424e-05
5.10362e-07
7.13842e-06
-1.46914e-05
3.94122e-07
7.60878e-06
-1.40415e-05
2.72649e-07
7.92108e-06
-1.31185e-05
1.47963e-07
8.03251e-06
-1.19815e-05
2.5445e-08
8.0658e-06
-1.08246e-05
-1.16655e-07
8.0434e-06
-9.72584e-06
-2.46915e-07
7.96813e-06
-8.76215e-06
-3.5137e-07
7.88922e-06
-7.95828e-06
-4.21667e-07
7.8416e-06
-7.27373e-06
-4.68661e-07
7.82739e-06
-6.6483e-06
-4.94919e-07
7.83245e-06
-6.03812e-06
-5.03164e-07
7.8379e-06
-5.41776e-06
-4.95389e-07
7.82528e-06
-4.77505e-06
-4.72959e-07
7.78037e-06
-4.11053e-06
-4.37443e-07
7.70196e-06
-3.44977e-06
-3.91493e-07
7.59091e-06
-2.79624e-06
-3.3698e-07
7.44505e-06
-2.13483e-06
-2.75352e-07
7.26985e-06
-1.44377e-06
-2.15357e-07
7.06596e-06
-6.97862e-07
-1.45056e-07
6.85858e-06
1.03095e-07
-6.73619e-08
6.71633e-06
8.21013e-07
1.4771e-08
6.42857e-06
1.70104e-06
1.08962e-07
6.03289e-06
2.74987e-06
2.18797e-07
5.43579e-06
4.10713e-06
3.50176e-07
4.49029e-06
5.98792e-06
5.18834e-07
3.13552e-06
8.56204e-06
7.26266e-07
1.61878e-06
1.10924e-05
9.09234e-07
3.08864e-07
1.18832e-05
8.33916e-07
8.64323e-06
3.47122e-07
5.61455e-07
-4.76492e-06
2.46723e-07
1.35802e-06
-1.15482e-05
6.18975e-07
1.93848e-06
-1.48246e-05
8.08603e-07
2.33978e-06
-1.59562e-05
8.34323e-07
2.67968e-06
-1.62116e-05
7.74745e-07
2.98541e-06
-1.60414e-05
6.93251e-07
3.23489e-06
-1.55291e-05
5.88156e-07
3.4288e-06
-1.47014e-05
4.65926e-07
3.57322e-06
-1.35846e-05
3.21571e-07
3.68746e-06
-1.22523e-05
1.56481e-07
3.73314e-06
-1.08596e-05
-1.08571e-08
3.73833e-06
-9.56033e-06
-1.7079e-07
3.74586e-06
-8.45952e-06
-3.1023e-07
3.80039e-06
-7.58702e-06
-4.25861e-07
3.89797e-06
-6.86602e-06
-5.0536e-07
4.03841e-06
-6.23307e-06
-5.55723e-07
4.2108e-06
-5.62798e-06
-5.82585e-07
4.4003e-06
-5.01767e-06
-5.89638e-07
4.59176e-06
-4.38713e-06
-5.79426e-07
4.77124e-06
-3.73609e-06
-5.53979e-07
4.92312e-06
-3.08564e-06
-5.16071e-07
5.03676e-06
-2.44154e-06
-4.68391e-07
5.10578e-06
-1.79071e-06
-4.132e-07
5.13763e-06
-1.11691e-06
-3.58785e-07
5.14469e-06
-4.06207e-07
-2.98779e-07
5.16292e-06
3.20543e-07
-2.35746e-07
5.13501e-06
1.01878e-06
-1.6993e-07
5.02924e-06
1.90301e-06
-9.62941e-08
4.79625e-06
2.99285e-06
-1.0116e-08
4.37161e-06
4.4333e-06
9.83145e-08
3.64942e-06
6.46289e-06
2.47065e-07
2.59681e-06
9.16649e-06
4.48009e-07
1.39127e-06
1.16489e-05
6.48916e-07
3.11915e-07
1.23194e-05
6.42897e-07
8.68792e-06
2.67213e-07
3.06932e-07
-5.3446e-06
2.72525e-07
5.56103e-07
-1.24707e-05
6.73195e-07
6.28942e-07
-1.57771e-05
8.79512e-07
6.31957e-07
-1.68812e-05
9.21873e-07
6.51031e-07
-1.71105e-05
8.7976e-07
7.00204e-07
-1.69001e-05
8.09439e-07
7.90652e-07
-1.63359e-05
7.163e-07
9.27173e-07
-1.54438e-05
6.05784e-07
1.12781e-06
-1.4258e-05
4.72683e-07
1.41185e-06
-1.28525e-05
3.16064e-07
1.75151e-06
-1.13418e-05
1.4244e-07
2.09295e-06
-9.86897e-06
-3.29336e-08
2.39243e-06
-8.56815e-06
-1.90965e-07
2.62553e-06
-7.50614e-06
-3.14076e-07
2.83007e-06
-6.65413e-06
-4.16523e-07
3.03022e-06
-5.94023e-06
-4.93073e-07
3.24016e-06
-5.29577e-06
-5.42252e-07
3.46497e-06
-4.6736e-06
-5.68969e-07
3.69811e-06
-4.04378e-06
-5.76583e-07
3.927e-06
-3.39758e-06
-5.67497e-07
4.13271e-06
-2.74698e-06
-5.44463e-07
4.30166e-06
-2.10066e-06
-5.09925e-07
4.42616e-06
-1.44957e-06
-4.65759e-07
4.51144e-06
-7.83465e-07
-4.18837e-07
4.56764e-06
-9.85786e-08
-3.63937e-07
4.6207e-06
5.7129e-07
-3.03934e-07
4.58245e-06
1.29569e-06
-2.38814e-07
4.46827e-06
2.18157e-06
-1.64583e-07
4.2432e-06
3.29571e-06
-7.80332e-08
3.84196e-06
4.80456e-06
2.96857e-08
3.17624e-06
6.95269e-06
1.75623e-07
2.23164e-06
9.75302e-06
3.57813e-07
1.19057e-06
1.21767e-05
5.12894e-07
2.63969e-07
1.27299e-05
5.15728e-07
8.73857e-06
2.13307e-07
8.22553e-09
-5.65047e-06
2.97429e-07
-1.30271e-07
-1.30361e-05
7.03816e-07
-3.79891e-07
-1.6436e-05
9.08436e-07
-6.27637e-07
-1.75996e-05
9.66047e-07
-8.31336e-07
-1.78552e-05
9.48371e-07
-9.68564e-07
-1.76636e-05
9.00683e-07
-1.01732e-06
-1.71185e-05
8.31261e-07
-9.49933e-07
-1.62562e-05
7.44935e-07
-7.32986e-07
-1.5112e-05
6.36958e-07
-3.48986e-07
-1.37399e-05
5.03307e-07
1.78025e-07
-1.22141e-05
3.45208e-07
7.68716e-07
-1.06287e-05
1.68964e-07
1.31423e-06
-9.10243e-06
-1.13584e-08
1.73861e-06
-7.75492e-06
-1.75721e-07
2.03971e-06
-6.65166e-06
-3.03672e-07
2.26523e-06
-5.76928e-06
-3.96567e-07
2.47741e-06
-5.03854e-06
-4.69479e-07
2.69838e-06
-4.3778e-06
-5.16853e-07
2.93777e-06
-3.74146e-06
-5.41795e-07
3.1904e-06
-3.10221e-06
-5.48076e-07
3.43525e-06
-2.45325e-06
-5.38668e-07
3.65507e-06
-1.80379e-06
-5.16782e-07
3.84076e-06
-1.15047e-06
-4.84876e-07
3.99366e-06
-4.88301e-07
-4.48159e-07
4.11776e-06
1.82653e-07
-4.05431e-07
4.21703e-06
8.28564e-07
-3.5665e-07
4.21313e-06
1.59987e-06
-3.0042e-07
4.11806e-06
2.5112e-06
-2.34726e-07
3.90726e-06
3.66207e-06
-1.55784e-07
3.52876e-06
5.23807e-06
-5.52712e-08
2.91977e-06
7.48263e-06
7.87855e-08
2.07798e-06
1.03493e-05
2.45307e-07
1.14743e-06
1.27087e-05
3.98381e-07
3.02895e-07
1.31534e-05
4.20677e-07
8.86497e-06
1.76483e-07
-1.35003e-07
-5.82837e-06
3.12716e-07
-5.21117e-07
-1.33549e-05
7.04734e-07
-9.73125e-07
-1.68907e-05
9.06619e-07
-1.37089e-06
-1.81823e-05
9.8045e-07
-1.69264e-06
-1.85193e-05
9.8568e-07
-1.9161e-06
-1.84021e-05
9.61895e-07
-2.02277e-06
-1.79305e-05
9.186e-07
-1.99337e-06
-1.71475e-05
8.61856e-07
-1.80484e-06
-1.60888e-05
7.88209e-07
-1.43683e-06
-1.47995e-05
6.91523e-07
-8.86702e-07
-1.33345e-05
5.70128e-07
-1.85868e-07
-1.17545e-05
4.24802e-07
5.82212e-07
-1.01301e-05
2.59428e-07
1.29674e-06
-8.55396e-06
8.43655e-08
1.86092e-06
-7.13444e-06
-8.15382e-08
2.258e-06
-5.94776e-06
-2.1872e-07
2.52578e-06
-4.99311e-06
-3.1332e-07
2.73799e-06
-4.20402e-06
-3.86087e-07
2.93951e-06
-3.50492e-06
-4.38165e-07
3.14556e-06
-2.84053e-06
-4.67825e-07
3.35327e-06
-2.18243e-06
-4.78644e-07
3.54693e-06
-1.52315e-06
-4.74399e-07
3.7148e-06
-8.6014e-07
-4.58317e-07
3.85712e-06
-1.95474e-07
-4.35259e-07
3.9876e-06
4.55414e-07
-4.03352e-07
4.04239e-06
1.13823e-06
-3.6459e-07
4.02178e-06
1.9366e-06
-3.16282e-07
3.90549e-06
2.8852e-06
-2.57905e-07
3.66719e-06
4.0866e-06
-1.86468e-07
3.27042e-06
5.72998e-06
-9.54419e-08
2.6766e-06
8.05255e-06
2.3614e-08
1.89816e-06
1.09559e-05
1.71529e-07
1.05637e-06
1.32361e-05
3.14021e-07
2.86316e-07
1.3571e-05
3.52082e-07
8.99482e-06
1.56452e-07
-2.84646e-07
-5.85561e-06
3.11775e-07
-8.59364e-07
-1.34479e-05
6.67628e-07
-1.46163e-06
-1.71279e-05
8.39426e-07
-2.00451e-06
-1.85471e-05
9.07554e-07
-2.45611e-06
-1.89886e-05
9.20904e-07
-2.79937e-06
-1.89681e-05
9.09269e-07
-3.00586e-06
-1.86059e-05
8.8182e-07
-3.04841e-06
-1.79497e-05
8.44676e-07
-2.902e-06
-1.70331e-05
7.97749e-07
-2.54911e-06
-1.58889e-05
7.36374e-07
-1.98739e-06
-1.45535e-05
6.57214e-07
-1.2333e-06
-1.30673e-05
5.58566e-07
-3.2957e-07
-1.14734e-05
4.39456e-07
6.39495e-07
-9.8236e-06
3.00474e-07
1.54865e-06
-8.19075e-06
1.47048e-07
2.27869e-06
-6.67049e-06
-7.40854e-09
2.78088e-06
-5.35001e-06
-1.45392e-07
3.09011e-06
-4.26606e-06
-2.47275e-07
3.28172e-06
-3.3796e-06
-3.17006e-07
3.42984e-06
-2.61957e-06
-3.6916e-07
3.56755e-06
-1.91882e-06
-4.01389e-07
3.70008e-06
-1.24035e-06
-4.15417e-07
3.81849e-06
-5.6315e-07
-4.15475e-07
3.92796e-06
1.00749e-07
-4.05777e-07
4.02717e-06
7.40807e-07
-3.84697e-07
4.0449e-06
1.47456e-06
-3.54168e-07
3.98764e-06
2.30712e-06
-3.13385e-07
3.8377e-06
3.29657e-06
-2.61601e-07
3.56679e-06
4.55393e-06
-1.96635e-07
3.14212e-06
6.26843e-06
-1.14018e-07
2.54159e-06
8.66132e-06
-8.47975e-09
1.79496e-06
1.15808e-05
1.21555e-07
1.01399e-06
1.37659e-05
2.5099e-07
2.96034e-07
1.39885e-05
3.00136e-07
9.14621e-06
1.44637e-07
-3.30886e-07
-5.8344e-06
3.09556e-07
-8.89074e-07
-1.35285e-05
6.38732e-07
-1.44836e-06
-1.7365e-05
7.96264e-07
-1.95909e-06
-1.89041e-05
8.67741e-07
-2.38891e-06
-1.94501e-05
8.91309e-07
-2.72489e-06
-1.95214e-05
8.8922e-07
-2.93452e-06
-1.92696e-05
8.73307e-07
-2.99115e-06
-1.87423e-05
8.49229e-07
-2.87418e-06
-1.79695e-05
8.19372e-07
-2.56943e-06
-1.69752e-05
7.815e-07
-2.07257e-06
-1.57831e-05
7.32612e-07
-1.39085e-06
-1.44201e-05
6.71058e-07
-5.42889e-07
-1.29164e-05
5.95028e-07
4.35608e-07
-1.13042e-05
5.02068e-07
1.47637e-06
-9.62142e-06
3.89825e-07
2.46955e-06
-7.92259e-06
2.58843e-07
3.29051e-06
-6.28759e-06
1.16538e-07
3.85625e-06
-4.81049e-06
-2.1389e-08
4.17323e-06
-3.55904e-06
-1.37608e-07
4.30849e-06
-2.53566e-06
-2.19232e-07
4.34839e-06
-1.6816e-06
-2.77176e-07
4.34969e-06
-9.2454e-07
-3.17168e-07
4.34559e-06
-2.19852e-07
-3.39253e-07
4.36928e-06
4.23048e-07
-3.4604e-07
4.34918e-06
1.09857e-06
-3.37723e-07
4.27778e-06
1.8634e-06
-3.1751e-07
4.13861e-06
2.73187e-06
-2.85658e-07
3.91248e-06
3.7646e-06
-2.41994e-07
3.57551e-06
5.0759e-06
-1.85111e-07
3.1009e-06
6.85505e-06
-1.1216e-07
2.47683e-06
9.30597e-06
-2.07012e-08
1.74292e-06
1.22224e-05
9.21607e-08
1.00015e-06
1.43001e-05
2.08449e-07
3.1422e-07
1.44111e-05
2.63098e-07
9.32178e-06
1.38652e-07
-3.07893e-07
-5.79953e-06
2.72958e-07
-7.18949e-07
-1.36603e-05
5.42803e-07
-1.08321e-06
-1.76759e-05
6.75134e-07
-1.40263e-06
-1.93316e-05
7.46851e-07
-1.67508e-06
-1.99576e-05
7.79908e-07
-1.88292e-06
-2.01008e-05
7.87161e-07
-1.99862e-06
-1.99329e-05
7.78926e-07
-1.9983e-06
-1.9504e-05
7.61337e-07
-1.8654e-06
-1.88412e-05
7.38828e-07
-1.58997e-06
-1.7963e-05
7.12401e-07
-1.16829e-06
-1.68858e-05
6.81047e-07
-6.03514e-07
-1.56299e-05
6.44996e-07
9.65197e-08
-1.42205e-05
6.03956e-07
9.20584e-07
-1.26843e-05
5.55995e-07
1.84869e-06
-1.10468e-05
4.97263e-07
2.83695e-06
-9.3336e-06
4.22707e-07
3.80226e-06
-7.58123e-06
3.2829e-07
4.62684e-06
-5.84967e-06
2.14551e-07
5.20254e-06
-4.22513e-06
9.03575e-08
5.49039e-06
-2.79541e-06
-2.81427e-08
5.53463e-06
-1.60231e-06
-1.23578e-07
5.42629e-06
-6.24617e-07
-1.91618e-07
5.26727e-06
1.78747e-07
-2.39605e-07
5.1329e-06
8.20492e-07
-2.6312e-07
4.95857e-06
1.54442e-06
-2.7156e-07
4.74718e-06
2.339e-06
-2.64262e-07
4.48518e-06
3.23722e-06
-2.43434e-07
4.15141e-06
4.30782e-06
-2.09534e-07
3.7212e-06
5.66806e-06
-1.62069e-07
3.17171e-06
7.50407e-06
-9.96457e-08
2.49953e-06
9.99892e-06
-2.09037e-08
1.75187e-06
1.2893e-05
7.69862e-08
1.01881e-06
1.48522e-05
1.80846e-07
3.40086e-07
1.4853e-05
2.36723e-07
9.52779e-06
1.34076e-07
-1.68201e-07
-5.87155e-06
2.40109e-07
-2.86598e-07
-1.40207e-05
4.78736e-07
-2.87363e-07
-1.8282e-05
6.06845e-07
-2.49289e-07
-2.00511e-05
6.81423e-07
-2.07082e-07
-2.07199e-05
7.20059e-07
-1.49181e-07
-2.08915e-05
7.32749e-07
-5.91146e-08
-2.07508e-05
7.27791e-07
7.58893e-08
-2.03493e-05
7.10282e-07
2.64987e-07
-1.97151e-05
6.84734e-07
5.14681e-07
-1.88667e-05
6.53978e-07
8.3141e-07
-1.78218e-05
6.19263e-07
1.22077e-06
-1.66025e-05
5.83229e-07
1.68765e-06
-1.52362e-05
5.48811e-07
2.23699e-06
-1.37511e-05
5.17432e-07
2.87299e-06
-1.21707e-05
4.87882e-07
3.59357e-06
-1.05103e-05
4.56051e-07
4.37819e-06
-8.7813e-06
4.15439e-07
5.17223e-06
-7.00243e-06
3.58708e-07
5.87787e-06
-5.21112e-06
2.80338e-07
6.37611e-06
-3.47453e-06
1.80877e-07
6.58556e-06
-1.8827e-06
7.09398e-08
6.51662e-06
-5.2262e-07
-3.30491e-08
6.26367e-06
5.44859e-07
-1.13164e-07
5.96478e-06
1.27862e-06
-1.59232e-07
5.62667e-06
2.06928e-06
-1.8675e-07
5.26001e-06
2.90234e-06
-1.96663e-07
4.85815e-06
3.82983e-06
-1.90736e-07
4.40402e-06
4.93188e-06
-1.69905e-07
3.87476e-06
6.33177e-06
-1.34422e-07
3.24876e-06
8.2143e-06
-8.41934e-08
2.52587e-06
1.07399e-05
-1.80488e-08
1.75915e-06
1.35934e-05
6.63721e-08
1.02841e-06
1.54243e-05
1.58628e-07
3.51662e-07
1.53162e-05
2.13544e-07
9.75349e-06
1.2596e-07
8.13786e-08
-6.14268e-06
1.89569e-07
3.72385e-07
-1.47051e-05
3.93237e-07
7.62505e-07
-1.91821e-05
5.09891e-07
1.14476e-06
-2.10132e-05
5.79721e-07
1.48351e-06
-2.16794e-05
6.20728e-07
1.78161e-06
-2.18285e-05
6.38925e-07
2.05429e-06
-2.16637e-05
6.4024e-07
2.30728e-06
-2.1229e-05
6.26608e-07
2.54431e-06
-2.05535e-05
6.01333e-07
2.76698e-06
-1.96565e-05
5.67087e-07
2.97885e-06
-1.85598e-05
5.26072e-07
3.18834e-06
-1.7294e-05
4.81914e-07
3.41005e-06
-1.58975e-05
4.39579e-07
3.66403e-06
-1.44088e-05
4.03681e-07
3.97221e-06
-1.28559e-05
3.76931e-07
4.3536e-06
-1.12509e-05
3.5918e-07
4.81828e-06
-9.59306e-06
3.47053e-07
5.35898e-06
-7.87729e-06
3.34141e-07
5.93881e-06
-6.10267e-06
3.1169e-07
6.47726e-06
-4.28321e-06
2.70206e-07
6.85356e-06
-2.46318e-06
2.0416e-07
6.95491e-06
-7.38746e-07
1.14763e-07
6.77178e-06
7.08729e-07
1.92446e-08
6.44832e-06
1.64581e-06
-4.37402e-08
6.02833e-06
2.58192e-06
-9.26598e-08
5.55818e-06
3.49486e-06
-1.2238e-07
5.05405e-06
4.46776e-06
-1.33813e-07
4.50903e-06
5.60524e-06
-1.28356e-07
3.90422e-06
7.04346e-06
-1.06877e-07
3.21973e-06
8.96831e-06
-6.95279e-08
2.45913e-06
1.15159e-05
-1.54407e-08
1.68294e-06
1.43126e-05
5.70079e-08
9.65625e-07
1.60032e-05
1.38505e-07
3.08601e-07
1.57843e-05
1.88989e-07
9.95076e-06
1.1133e-07
2.95196e-07
-6.6031e-06
1.65011e-07
8.2322e-07
-1.56056e-05
3.72355e-07
1.39439e-06
-2.02468e-05
4.93457e-07
1.92409e-06
-2.20983e-05
5.55355e-07
2.38525e-06
-2.2729e-05
5.88314e-07
2.78139e-06
-2.28282e-05
6.03513e-07
3.11203e-06
-2.26e-05
6.05617e-07
3.37172e-06
-2.20823e-05
5.93636e-07
3.55846e-06
-2.1309e-05
5.68787e-07
3.67419e-06
-2.03046e-05
5.32271e-07
3.72844e-06
-1.90998e-05
4.85672e-07
3.74032e-06
-1.77382e-05
4.32313e-07
3.73706e-06
-1.62717e-05
3.77393e-07
3.74955e-06
-1.4748e-05
3.26668e-07
3.80762e-06
-1.31989e-05
2.84982e-07
3.9366e-06
-1.16351e-05
2.55222e-07
4.15392e-06
-1.00482e-05
2.37818e-07
4.46583e-06
-8.41973e-06
2.30493e-07
4.8632e-06
-6.72818e-06
2.28119e-07
5.31136e-06
-4.95407e-06
2.22675e-07
5.73603e-06
-3.0919e-06
2.04021e-07
6.02159e-06
-1.18681e-06
1.62484e-07
6.06597e-06
5.65479e-07
9.88479e-08
5.91372e-06
1.75455e-06
4.34942e-08
5.59784e-06
2.91062e-06
-1.28367e-08
5.17717e-06
3.9717e-06
-5.61754e-08
4.69377e-06
5.03424e-06
-8.30594e-08
4.15919e-06
6.23291e-06
-9.3089e-08
3.56212e-06
7.72681e-06
-8.62749e-08
2.88652e-06
9.70614e-06
-6.2208e-08
2.14446e-06
1.22777e-05
-1.96818e-08
1.41073e-06
1.50043e-05
4.19967e-08
7.5886e-07
1.65422e-05
1.12845e-07
1.83312e-07
1.62014e-05
1.5848e-07
1.00464e-05
8.76964e-08
3.67187e-07
-7.13247e-06
1.61863e-07
8.26363e-07
-1.64317e-05
3.66829e-07
1.16178e-06
-2.10608e-05
4.78496e-07
1.4514e-06
-2.29184e-05
5.30406e-07
1.72423e-06
-2.35568e-05
5.54956e-07
1.94764e-06
-2.36185e-05
5.66802e-07
2.10351e-06
-2.33245e-05
5.68507e-07
2.1865e-06
-2.27239e-05
5.58546e-07
2.19566e-06
-2.18548e-05
5.3657e-07
2.13978e-06
-2.07515e-05
5.02743e-07
2.03901e-06
-1.94572e-05
4.581e-07
1.92216e-06
-1.80267e-05
4.05254e-07
1.82058e-06
-1.65187e-05
3.48517e-07
1.76242e-06
-1.49828e-05
2.929e-07
1.76985e-06
-1.34494e-05
2.42987e-07
1.85867e-06
-1.19261e-05
2.02151e-07
2.03905e-06
-1.04009e-05
1.72217e-07
2.31363e-06
-8.84778e-06
1.53387e-07
2.67624e-06
-7.23502e-06
1.44152e-07
3.10847e-06
-5.52744e-06
1.41046e-07
3.5752e-06
-3.69707e-06
1.38339e-07
4.0177e-06
-1.75797e-06
1.28547e-07
4.34401e-06
1.34468e-07
1.04617e-07
4.46096e-06
1.56549e-06
7.20358e-08
4.38898e-06
2.95332e-06
2.92094e-08
4.16793e-06
4.20556e-06
-1.2863e-08
3.83362e-06
5.41419e-06
-4.56897e-08
3.41211e-06
6.71997e-06
-6.56034e-08
2.90618e-06
8.30313e-06
-7.04227e-08
2.30948e-06
1.03608e-05
-5.80125e-08
1.64667e-06
1.29664e-05
-2.59179e-08
1.01185e-06
1.56132e-05
2.58788e-08
4.80592e-07
1.69874e-05
8.60274e-08
5.05511e-08
1.65069e-05
1.24505e-07
1.00342e-05
6.27261e-08
1.66562e-07
-7.47323e-06
1.74048e-07
1.85144e-07
-1.68267e-05
3.76259e-07
3.54367e-08
-2.13954e-05
4.84215e-07
-1.50017e-07
-2.32686e-05
5.35613e-07
-3.06465e-07
-2.39575e-05
5.57072e-07
-4.34553e-07
-2.40546e-05
5.64135e-07
-5.73163e-07
-2.3749e-05
5.6309e-07
-7.29672e-07
-2.31209e-05
5.53443e-07
-8.99198e-07
-2.22192e-05
5.33825e-07
-1.06385e-06
-2.1091e-05
5.04044e-07
-1.19768e-06
-1.97882e-05
4.64752e-07
-1.27556e-06
-1.83667e-05
4.17852e-07
-1.28111e-06
-1.68796e-05
3.66412e-07
-1.20853e-06
-1.53695e-05
3.1403e-07
-1.05879e-06
-1.38635e-05
2.64204e-07
-8.35063e-07
-1.23697e-05
2.19779e-07
-5.39355e-07
-1.08794e-05
1.82647e-07
-1.72591e-07
-9.36838e-06
1.5373e-07
2.6286e-07
-7.8036e-06
1.33006e-07
7.6189e-07
-6.14612e-06
1.195e-07
1.31591e-06
-4.3623e-06
1.11043e-07
1.9073e-06
-2.45341e-06
1.03854e-07
2.47122e-06
-5.22104e-07
9.2457e-08
2.83431e-06
1.12842e-06
7.38024e-08
3.028e-06
2.71423e-06
4.52122e-08
3.0318e-06
4.18878e-06
1.27994e-08
2.8872e-06
5.5781e-06
-1.94859e-08
2.6151e-06
7.03535e-06
-4.34613e-08
2.2271e-06
8.7466e-06
-5.56685e-08
1.73069e-06
1.09094e-05
-5.23565e-08
1.16863e-06
1.35578e-05
-2.95045e-08
6.52849e-07
1.6116e-05
1.28971e-08
2.51396e-07
1.73256e-05
6.30881e-08
-3.57238e-08
1.66969e-05
9.67558e-08
9.94759e-06
5.08744e-08
-1.32361e-07
-7.53254e-06
1.91507e-07
-5.02959e-07
-1.68344e-05
3.78161e-07
-9.74486e-07
-2.1393e-05
4.69075e-07
-1.49251e-06
-2.32777e-05
5.27051e-07
-2.0154e-06
-2.39915e-05
5.56819e-07
-2.49327e-06
-2.41481e-05
5.71289e-07
-2.908e-06
-2.3909e-05
5.74716e-07
-3.24601e-06
-2.33519e-05
5.68958e-07
-3.49035e-06
-2.25306e-05
5.55643e-07
-3.62323e-06
-2.14926e-05
5.34424e-07
-3.63326e-06
-2.02833e-05
5.05098e-07
-3.52373e-06
-1.89453e-05
4.68949e-07
-3.31199e-06
-1.7519e-05
4.27563e-07
-3.02323e-06
-1.60415e-05
3.83141e-07
-2.68187e-06
-1.45432e-05
3.3829e-07
-2.30425e-06
-1.3043e-05
2.95552e-07
-1.89632e-06
-1.15444e-05
2.56988e-07
-1.45487e-06
-1.00338e-05
2.23842e-07
-9.71933e-07
-8.48319e-06
1.96511e-07
-4.35962e-07
-6.85673e-06
1.74472e-07
1.64846e-07
-5.11959e-06
1.56293e-07
8.28223e-07
-3.25668e-06
1.39677e-07
1.49198e-06
-1.30761e-06
1.2152e-07
1.95117e-06
5.68716e-07
1.00285e-07
2.30349e-06
2.2874e-06
7.43015e-08
2.45656e-06
3.99177e-06
4.37402e-08
2.42108e-06
5.5959e-06
1.74771e-08
2.23039e-06
7.2367e-06
-1.08573e-08
1.90074e-06
9.10492e-06
-2.88764e-08
1.4547e-06
1.13883e-05
-3.30864e-08
9.52587e-07
1.40787e-05
-1.90049e-08
5.15638e-07
1.6539e-05
1.37403e-08
1.88914e-07
1.75978e-05
5.43042e-08
-3.23819e-08
1.68348e-05
8.3088e-08
9.86426e-06
5.09281e-08
-4.36029e-07
-7.29777e-06
2.01354e-07
-1.09047e-06
-1.65012e-05
3.21307e-07
-1.72845e-06
-2.11417e-05
3.8669e-07
-2.31043e-06
-2.3162e-05
4.66234e-07
-2.849e-06
-2.3977e-05
5.24058e-07
-3.35122e-06
-2.42036e-05
5.57755e-07
-3.76993e-06
-2.40684e-05
5.78013e-07
-4.06928e-06
-2.36399e-05
5.87289e-07
-4.22301e-06
-2.29648e-05
5.8796e-07
-4.21924e-06
-2.2078e-05
5.81585e-07
-4.06167e-06
-2.10091e-05
5.68151e-07
-3.7704e-06
-1.97839e-05
5.47254e-07
-3.37838e-06
-1.84308e-05
5.19691e-07
-2.92444e-06
-1.69822e-05
4.86664e-07
-2.4452e-06
-1.54726e-05
4.5005e-07
-1.96785e-06
-1.39326e-05
4.12157e-07
-1.5052e-06
-1.23825e-05
3.7529e-07
-1.05418e-06
-1.08262e-05
3.41245e-07
-5.98533e-07
-9.24991e-06
3.1092e-07
-1.14668e-07
-7.62493e-06
2.84161e-07
4.19016e-07
-5.91309e-06
2.59599e-07
1.0042e-06
-4.07717e-06
2.35042e-07
1.59272e-06
-2.10425e-06
2.07811e-07
2.04612e-06
-6.06651e-08
1.75654e-07
2.42125e-06
1.77008e-06
1.41869e-07
2.61026e-06
3.69734e-06
1.05092e-07
2.59222e-06
5.54565e-06
6.79766e-08
2.39571e-06
7.39374e-06
3.9127e-08
2.05141e-06
9.43389e-06
1.49868e-08
1.59434e-06
1.18426e-05
2.47326e-09
1.09544e-06
1.45699e-05
7.39357e-09
6.70336e-07
1.69334e-05
3.0479e-08
3.34874e-07
1.78705e-05
6.24443e-08
7.74377e-08
1.70035e-05
8.82828e-08
9.87274e-06
6.89495e-08
-5.83538e-07
-6.86606e-06
1.51962e-07
-1.47494e-06
-1.578e-05
1.70341e-07
-2.24237e-06
-2.05664e-05
1.92176e-07
-2.84097e-06
-2.28531e-05
2.89714e-07
-3.32589e-06
-2.38802e-05
3.88225e-07
-3.71135e-06
-2.42722e-05
4.54077e-07
-3.9899e-06
-2.429e-05
5.00181e-07
-4.13799e-06
-2.40223e-05
5.30526e-07
-4.14282e-06
-2.35102e-05
5.50192e-07
-4.00099e-06
-2.27821e-05
5.62243e-07
-3.71866e-06
-2.18595e-05
5.68033e-07
-3.31227e-06
-2.07582e-05
5.67927e-07
-2.80783e-06
-1.94967e-05
5.61438e-07
-2.24084e-06
-1.80979e-05
5.48624e-07
-1.65153e-06
-1.65928e-05
5.30807e-07
-1.0774e-06
-1.50158e-05
5.09013e-07
-5.44937e-07
-1.33996e-05
4.84568e-07
-6.37805e-08
-1.17665e-05
4.59094e-07
3.74678e-07
-1.01225e-05
4.34069e-07
7.92669e-07
-8.45327e-06
4.10233e-07
1.21787e-06
-6.72492e-06
3.86485e-07
1.66807e-06
-4.88846e-06
3.60919e-07
2.13561e-06
-2.90229e-06
3.30304e-07
2.57577e-06
-7.92466e-07
2.91431e-07
2.8449e-06
1.25296e-06
2.47756e-07
3.07355e-06
3.27123e-06
1.97229e-07
3.06429e-06
5.40667e-06
1.47999e-07
2.83598e-06
7.51487e-06
1.06957e-07
2.44631e-06
9.74903e-06
7.42969e-08
1.94741e-06
1.22885e-05
5.27674e-08
1.41376e-06
1.50556e-05
4.77364e-08
9.46189e-07
1.73398e-05
6.09731e-08
5.42265e-07
1.8189e-05
8.51617e-08
1.91652e-07
1.72467e-05
1.07112e-07
9.97351e-06
9.0878e-08
-5.15288e-07
-6.44857e-06
9.82496e-08
-1.21284e-06
-1.5136e-05
5.37577e-08
-1.75062e-06
-2.00627e-05
3.42795e-08
-2.13578e-06
-2.25578e-05
9.00158e-08
-2.4373e-06
-2.37553e-05
1.76727e-07
-2.6649e-06
-2.43187e-05
2.74175e-07
-2.80049e-06
-2.44958e-05
3.41447e-07
-2.82631e-06
-2.43835e-05
3.87113e-07
-2.73308e-06
-2.4024e-05
4.20661e-07
-2.52012e-06
-2.34409e-05
4.4589e-07
-2.19069e-06
-2.26543e-05
4.65433e-07
-1.74789e-06
-2.16815e-05
4.80534e-07
-1.20841e-06
-2.05285e-05
4.92332e-07
-6.10063e-07
-1.91991e-05
5.02854e-07
1.13227e-08
-1.77259e-05
5.11703e-07
6.20526e-07
-1.61434e-05
5.18316e-07
1.18363e-06
-1.44844e-05
5.21706e-07
1.67284e-06
-1.27769e-05
5.21121e-07
2.07692e-06
-1.10429e-05
5.16222e-07
2.4097e-06
-9.29326e-06
5.07165e-07
2.70519e-06
-7.51587e-06
4.95386e-07
3.0014e-06
-5.66486e-06
4.80115e-07
3.32333e-06
-3.68259e-06
4.58248e-07
3.62288e-06
-1.51775e-06
4.25601e-07
3.70888e-06
7.90521e-07
3.76302e-07
3.85713e-06
2.80342e-06
3.1942e-07
3.80702e-06
5.20368e-06
2.5295e-07
3.52355e-06
7.60475e-06
1.93437e-07
3.06015e-06
1.0066e-05
1.46255e-07
2.48619e-06
1.27493e-05
1.13023e-07
1.87984e-06
1.55645e-05
9.73831e-08
1.32651e-06
1.77921e-05
1.00999e-07
8.15904e-07
1.85816e-05
1.17967e-07
3.38953e-07
1.75877e-05
1.35845e-07
1.01917e-05
1.20755e-07
-2.08493e-07
-6.24626e-06
6.43917e-09
-3.19906e-07
-1.49091e-05
-1.15331e-07
-2.70403e-07
-1.99734e-05
-1.38656e-07
-1.65656e-07
-2.26113e-05
-5.10641e-08
-4.14453e-08
-2.39199e-05
4.04711e-08
1.23845e-07
-2.45739e-05
9.00001e-08
3.29379e-07
-2.48383e-05
1.37121e-07
5.77938e-07
-2.48168e-05
1.84759e-07
8.91789e-07
-2.45615e-05
2.23733e-07
1.26989e-06
-2.40715e-05
2.52651e-07
1.70535e-06
-2.33626e-05
2.72965e-07
2.1508e-06
-2.24123e-05
2.8547e-07
2.56926e-06
-2.12423e-05
2.95457e-07
2.95859e-06
-1.99013e-05
3.12997e-07
3.32572e-06
-1.84307e-05
3.37816e-07
3.67453e-06
-1.68607e-05
3.68633e-07
4.00147e-06
-1.52146e-05
4.03365e-07
4.29593e-06
-1.35117e-05
4.40412e-07
4.54094e-06
-1.17651e-05
4.77317e-07
4.7229e-06
-9.98207e-06
5.06922e-07
4.84658e-06
-8.16449e-06
5.25005e-07
4.93451e-06
-6.28829e-06
5.35554e-07
5.00249e-06
-4.28695e-06
5.36435e-07
5.01509e-06
-2.05678e-06
5.2649e-07
4.93177e-06
3.81809e-07
4.92076e-07
4.87375e-06
2.41819e-06
4.43288e-07
4.70619e-06
5.001e-06
3.70268e-07
4.34085e-06
7.67849e-06
2.91619e-07
3.78697e-06
1.03947e-05
2.25188e-07