/*--------------------------------*- C++ -*----------------------------------*\
| =========                 |                                                 |
| \\      /  F ield         | OpenFOAM: The Open Source CFD Toolbox           |
|  \\    /   O peration     | Version:  2.0.x                                 |
|   \\  /    A nd           | Web:      www.OpenFOAM.org                      |
|    \\/     M anipulation  |                                                 |
\*---------------------------------------------------------------------------*/
FoamFile
{
    version     2.0;
    format      ascii;
    class       volScalarField;
    location    "800";
    object      T;
}
// * * * * * * * * * * * * * * * * * * * * * * * * * * * * * * * * * * * * * //

dimensions      [0 0 0 1 0 0 0];

internalField   nonuniform List<scalar> 
78750
(
288.779
289.618
290.025
290.186
290.234
290.251
290.275
290.313
290.365
290.424
290.486
290.544
290.596
290.64
290.681
290.718
290.753
290.785
290.815
290.843
290.87
290.894
290.917
290.939
290.959
290.977
290.992
291.005
291.015
291.025
291.035
291.079
291.483
293.654
301.101
288.511
289.098
289.403
289.557
289.656
289.752
289.865
289.992
290.13
290.267
290.396
290.507
290.607
290.7
290.786
290.868
290.944
291.013
291.076
291.133
291.184
291.229
291.268
291.302
291.331
291.354
291.37
291.379
291.379
291.374
291.373
291.426
292.017
294.547
301.565
288.363
288.741
289.052
289.339
289.607
289.86
290.1
290.328
290.533
290.707
290.854
290.98
291.091
291.187
291.27
291.34
291.4
291.45
291.492
291.527
291.557
291.583
291.605
291.623
291.637
291.646
291.65
291.649
291.641
291.64
291.664
291.917
293.11
295.993
302.129
288.457
289.032
289.544
289.997
290.382
290.693
290.935
291.117
291.255
291.361
291.446
291.512
291.562
291.601
291.631
291.655
291.677
291.697
291.716
291.736
291.755
291.773
291.79
291.804
291.815
291.821
291.822
291.82
291.819
291.83
291.938
292.449
294.132
297.155
302.644
288.528
289.256
289.875
290.344
290.672
290.904
291.081
291.229
291.358
291.471
291.568
291.646
291.706
291.751
291.786
291.814
291.838
291.86
291.881
291.9
291.919
291.936
291.951
291.962
291.97
291.974
291.975
291.975
291.985
292.04
292.26
293.023
294.983
298.034
303.177
288.62
289.504
290.198
290.664
290.968
291.201
291.405
291.594
291.767
291.916
292.025
292.089
292.118
292.125
292.122
292.118
292.113
292.11
292.108
292.109
292.111
292.114
292.118
292.121
292.125
292.127
292.131
292.142
292.177
292.289
292.635
293.606
295.684
298.762
303.738
288.671
289.603
290.28
290.704
290.99
291.221
291.427
291.619
291.796
291.947
292.06
292.126
292.16
292.176
292.182
292.184
292.186
292.189
292.193
292.198
292.205
292.212
292.22
292.229
292.24
292.253
292.272
292.306
292.382
292.566
293.037
294.161
296.283
299.329
304.135
288.691
289.642
290.315
290.731
291.018
291.256
291.471
291.67
291.852
292.015
292.153
292.26
292.321
292.347
292.353
292.351
292.347
292.343
292.34
292.339
292.341
292.344
292.35
292.359
292.371
292.389
292.418
292.469
292.576
292.817
293.386
294.627
296.769
299.78
304.439
288.698
289.648
290.316
290.731
291.018
291.257
291.472
291.671
291.853
292.016
292.154
292.268
292.35
292.398
292.418
292.427
292.431
292.433
292.436
292.439
292.444
292.452
292.462
292.476
292.495
292.522
292.562
292.633
292.77
293.062
293.707
295.03
297.17
300.128
304.653
288.694
289.631
290.291
290.704
290.991
291.23
291.447
291.647
291.833
291.999
292.145
292.267
292.367
292.447
292.507
292.537
292.548
292.554
292.557
292.561
292.567
292.576
292.588
292.605
292.628
292.661
292.712
292.799
292.961
293.294
293.999
295.379
297.505
300.408
304.814
288.68
289.584
290.219
290.622
290.905
291.14
291.352
291.55
291.736
291.909
292.068
292.21
292.333
292.435
292.514
292.574
292.617
292.639
292.651
292.661
292.671
292.685
292.702
292.724
292.754
292.795
292.858
292.963
293.151
293.524
294.283
295.709
297.807
300.642
304.942
288.667
289.551
290.172
290.565
290.836
291.057
291.256
291.442
291.618
291.786
291.944
292.093
292.232
292.358
292.469
292.562
292.636
292.692
292.734
292.76
292.779
292.797
292.819
292.845
292.88
292.928
293.002
293.121
293.333
293.74
294.546
296.007
298.07
300.832
305.04
288.655
289.519
290.132
290.525
290.793
291.009
291.199
291.374
291.536
291.689
291.834
291.973
292.107
292.236
292.362
292.478
292.584
292.675
292.75
292.809
292.855
292.89
292.921
292.955
292.997
293.054
293.138
293.272
293.507
293.948
294.796
296.286
298.306
300.99
305.117
288.63
289.461
290.072
290.474
290.751
290.973
291.168
291.346
291.511
291.664
291.805
291.936
292.056
292.169
292.274
292.38
292.487
292.595
292.7
292.795
292.876
292.944
292.999
293.047
293.099
293.166
293.261
293.41
293.665
294.137
295.023
296.535
298.508
301.114
305.176
288.62
289.447
290.065
290.471
290.751
290.974
291.172
291.353
291.521
291.677
291.82
291.951
292.069
292.175
292.273
292.365
292.455
292.545
292.639
292.738
292.841
292.943
293.032
293.107
293.179
293.261
293.37
293.534
293.811
294.313
295.236
296.768
298.691
301.219
305.226
288.618
289.452
290.084
290.504
290.792
291.023
291.23
291.42
291.598
291.764
291.914
292.048
292.162
292.261
292.346
292.422
292.494
292.566
292.642
292.726
292.819
292.925
293.034
293.135
293.231
293.335
293.463
293.647
293.949
294.484
295.445
296.993
298.865
301.317
305.276
288.63
289.489
290.142
290.577
290.879
291.125
291.345
291.551
291.744
291.924
292.085
292.224
292.337
292.425
292.499
292.56
292.614
292.666
292.722
292.784
292.858
292.948
293.052
293.16
293.274
293.399
293.55
293.759
294.092
294.669
295.674
297.237
299.052
301.425
305.335
288.641
289.505
290.154
290.592
290.901
291.153
291.382
291.596
291.798
291.988
292.162
292.319
292.457
292.569
292.652
292.715
292.763
292.807
292.852
292.901
292.958
293.028
293.113
293.213
293.33
293.468
293.639
293.875
294.243
294.864
295.912
297.484
299.238
301.53
305.392
288.644
289.504
290.149
290.584
290.895
291.149
291.378
291.593
291.796
291.986
292.161
292.318
292.458
292.58
292.686
292.777
292.859
292.923
292.978
293.027
293.079
293.139
293.21
293.298
293.411
293.554
293.741
294.003
294.408
295.075
296.164
297.735
299.425
301.639
305.446
288.634
289.465
290.078
290.501
290.81
291.066
291.296
291.51
291.712
291.902
292.08
292.246
292.399
292.537
292.659
292.767
292.861
292.947
293.026
293.101
293.17
293.236
293.306
293.391
293.499
293.644
293.843
294.128
294.566
295.273
296.396
297.955
299.587
301.73
305.485
288.602
289.377
289.952
290.354
290.648
290.891
291.11
291.315
291.509
291.695
291.876
292.051
292.221
292.383
292.535
292.674
292.8
292.912
293.011
293.102
293.19
293.278
293.37
293.466
293.58
293.729
293.938
294.241
294.708
295.45
296.598
298.139
299.723
301.812
305.514
288.575
289.307
289.855
290.238
290.51
290.729
290.924
291.107
291.283
291.454
291.624
291.794
291.966
292.139
292.308
292.473
292.631
292.779
292.915
293.039
293.153
293.262
293.373
293.492
293.626
293.79
294.012
294.334
294.824
295.593
296.759
298.28
299.829
301.878
305.533
288.558
289.275
289.832
290.222
290.492
290.7
290.881
291.048
291.206
291.358
291.505
291.649
291.788
291.928
292.077
292.231
292.391
292.557
292.723
292.878
293.026
293.167
293.307
293.455
293.618
293.804
294.048
294.398
294.913
295.708
296.889
298.394
299.916
301.936
305.548
288.552
289.271
289.833
290.227
290.501
290.71
290.89
291.056
291.214
291.365
291.512
291.653
291.788
291.918
292.042
292.164
292.285
292.408
292.538
292.684
292.839
293
293.165
293.343
293.54
293.761
294.033
294.398
294.945
295.765
296.96
298.457
299.965
301.968
305.552
288.56
289.306
289.903
290.323
290.607
290.82
291.002
291.171
291.333
291.491
291.643
291.785
291.911
292.023
292.124
292.219
292.315
292.414
292.519
292.631
292.752
292.883
293.037
293.221
293.434
293.68
293.987
294.397
294.973
295.823
297.038
298.532
300.029
302.022
305.576
288.595
289.423
290.09
290.548
290.852
291.082
291.283
291.472
291.656
291.835
291.998
292.136
292.245
292.325
292.385
292.435
292.483
292.537
292.601
292.677
292.768
292.876
293.004
293.163
293.359
293.604
293.93
294.377
294.994
295.881
297.119
298.611
300.1
302.084
305.605
288.648
289.576
290.315
290.814
291.15
291.415
291.655
291.886
292.108
292.314
292.491
292.625
292.709
292.75
292.763
292.765
292.769
292.78
292.803
292.841
292.894
292.967
293.063
293.191
293.362
293.589
293.91
294.372
295.019
295.945
297.211
298.704
300.184
302.159
305.648
288.71
289.738
290.524
291.037
291.394
291.695
291.975
292.243
292.496
292.725
292.913
293.042
293.101
293.112
293.1
293.079
293.059
293.049
293.052
293.07
293.103
293.154
293.228
293.33
293.469
293.667
293.969
294.431
295.112
296.077
297.369
298.849
300.312
302.278
305.712
288.773
289.851
290.614
291.102
291.456
291.76
292.048
292.324
292.58
292.808
293
293.153
293.267
293.317
293.322
293.313
293.3
293.292
293.295
293.309
293.336
293.379
293.441
293.528
293.651
293.83
294.113
294.566
295.259
296.247
297.549
299.005
300.448
302.406
305.781
288.781
289.855
290.615
291.099
291.449
291.755
292.045
292.32
292.573
292.798
292.991
293.148
293.274
293.371
293.446
293.483
293.496
293.505
293.518
293.538
293.568
293.612
293.673
293.756
293.872
294.043
294.311
294.747
295.435
296.438
297.748
299.165
300.582
302.535
305.84
288.768
289.807
290.527
290.988
291.329
291.627
291.9
292.155
292.397
292.628
292.843
293.037
293.207
293.348
293.461
293.555
293.635
293.687
293.722
293.75
293.786
293.835
293.899
293.986
294.105
294.279
294.55
294.984
295.672
296.68
297.978
299.344
300.729
302.667
305.889
288.713
289.655
290.313
290.743
291.055
291.319
291.563
291.803
292.043
292.279
292.513
292.743
292.964
293.169
293.352
293.508
293.635
293.743
293.835
293.914
293.974
294.029
294.097
294.187
294.309
294.488
294.765
295.204
295.895
296.901
298.179
299.491
300.842
302.765
305.919
288.669
289.558
290.205
290.629
290.926
291.168
291.385
291.587
291.781
291.983
292.189
292.401
292.622
292.847
293.068
293.282
293.483
293.662
293.817
293.948
294.063
294.168
294.261
294.361
294.49
294.673
294.955
295.401
296.094
297.096
298.351
299.618
300.935
302.833
305.937
288.664
289.549
290.196
290.622
290.92
291.162
291.379
291.579
291.764
291.94
292.109
292.272
292.433
292.602
292.79
292.994
293.209
293.426
293.641
293.844
294.027
294.189
294.334
294.474
294.624
294.82
295.11
295.56
296.255
297.252
298.487
299.718
301.004
302.878
305.944
288.65
289.514
290.156
290.589
290.893
291.14
291.36
291.564
291.755
291.935
292.105
292.268
292.424
292.575
292.722
292.868
293.026
293.208
293.414
293.634
293.862
294.089
294.306
294.509
294.707
294.935
295.244
295.703
296.399
297.388
298.602
299.804
301.064
302.914
305.952
288.635
289.488
290.136
290.574
290.881
291.128
291.348
291.552
291.744
291.927
292.101
292.266
292.424
292.575
292.721
292.863
293.006
293.15
293.303
293.48
293.688
293.928
294.189
294.457
294.722
295.008
295.358
295.839
296.542
297.524
298.715
299.888
301.124
302.95
305.963
288.633
289.487
290.136
290.578
290.886
291.134
291.353
291.558
291.752
291.938
292.115
292.284
292.444
292.595
292.74
292.879
293.015
293.153
293.298
293.454
293.629
293.833
294.085
294.377
294.694
295.036
295.439
295.956
296.675
297.653
298.821
299.969
301.183
302.985
305.974
288.634
289.498
290.163
290.616
290.93
291.179
291.401
291.609
291.808
291.999
292.182
292.355
292.518
292.67
292.812
292.945
293.074
293.201
293.332
293.474
293.635
293.825
294.056
294.333
294.658
295.038
295.488
296.046
296.786
297.761
298.908
300.033
301.228
303.01
305.983
288.65
289.544
290.228
290.69
291.01
291.266
291.494
291.707
291.91
292.106
292.293
292.471
292.637
292.791
292.933
293.063
293.185
293.303
293.422
293.55
293.694
293.865
294.075
294.334
294.652
295.044
295.522
296.113
296.874
297.851
298.982
300.09
301.27
303.035
305.992
288.665
289.582
290.281
290.75
291.077
291.34
291.574
291.793
292.002
292.203
292.396
292.58
292.753
292.913
293.059
293.192
293.314
293.43
293.543
293.662
293.794
293.949
294.142
294.381
294.68
295.065
295.553
296.164
296.943
297.922
299.04
300.131
301.3
303.058
306.002
288.675
289.609
290.317
290.79
291.119
291.386
291.625
291.849
292.064
292.271
292.471
292.662
292.843
293.012
293.166
293.306
293.434
293.553
293.667
293.783
293.91
294.058
294.24
294.471
294.765
295.145
295.635
296.259
297.051
298.032
299.135
300.202
301.356
303.107
306.025
288.693
289.655
290.374
290.846
291.175
291.443
291.685
291.913
292.132
292.344
292.549
292.746
292.933
293.107
293.268
293.415
293.549
293.673
293.791
293.909
294.034
294.177
294.355
294.587
294.889
295.282
295.79
296.435
297.242
298.219
299.292
300.319
301.45
303.193
306.064
288.71
289.696
290.424
290.899
291.232
291.504
291.75
291.983
292.206
292.422
292.63
292.831
293.022
293.201
293.366
293.519
293.66
293.791
293.915
294.037
294.163
294.304
294.476
294.702
295.004
295.407
295.937
296.61
297.437
298.411
299.45
300.439
301.547
303.277
306.098
288.717
289.709
290.439
290.914
291.248
291.523
291.773
292.008
292.232
292.447
292.654
292.855
293.05
293.24
293.421
293.59
293.743
293.886
294.021
294.152
294.284
294.427
294.596
294.814
295.105
295.498
296.027
296.709
297.547
298.519
299.539
300.504
301.599
303.326
306.117
288.722
289.721
290.451
290.922
291.253
291.528
291.777
292.012
292.235
292.45
292.656
292.857
293.052
293.241
293.425
293.603
293.773
293.933
294.084
294.229
294.372
294.523
294.696
294.913
295.203
295.594
296.121
296.803
297.645
298.617
299.621
300.564
301.646
303.368
306.131
288.727
289.736
290.473
290.946
291.278
291.553
291.803
292.038
292.26
292.472
292.674
292.87
293.06
293.245
293.426
293.604
293.776
293.943
294.105
294.262
294.418
294.577
294.754
294.968
295.251
295.636
296.168
296.86
297.709
298.677
299.669
300.602
301.674
303.389
306.131
288.729
289.745
290.49
290.971
291.309
291.591
291.847
292.086
292.311
292.521
292.72
292.908
293.09
293.267
293.441
293.613
293.782
293.949
294.113
294.277
294.44
294.608
294.791
295.006
295.277
295.642
296.153
296.836
297.69
298.67
299.671
300.604
301.674
303.385
306.126
288.735
289.761
290.513
290.997
291.341
291.631
291.896
292.145
292.377
292.591
292.79
292.974
293.149
293.317
293.483
293.647
293.81
293.972
294.134
294.297
294.464
294.637
294.825
295.044
295.311
295.66
296.152
296.83
297.686
298.671
299.673
300.607
301.676
303.385
306.126
288.743
289.781
290.539
291.027
291.375
291.672
291.946
292.205
292.447
292.668
292.87
293.053
293.224
293.386
293.544
293.701
293.857
294.014
294.172
294.334
294.502
294.68
294.877
295.102
295.369
295.71
296.179
296.836
297.693
298.699
299.725
300.656
301.718
303.423
306.144
288.748
289.794
290.556
291.047
291.399
291.702
291.986
292.256
292.508
292.738
292.945
293.13
293.3
293.459
293.612
293.763
293.914
294.066
294.221
294.381
294.551
294.736
294.946
295.19
295.48
295.84
296.316
296.969
297.828
298.834
299.835
300.742
301.797
303.504
306.183
288.755
289.81
290.576
291.068
291.423
291.732
292.024
292.304
292.567
292.805
293.016
293.203
293.372
293.529
293.679
293.826
293.973
294.121
294.273
294.432
294.602
294.792
295.017
295.294
295.635
296.05
296.565
297.23
298.076
299.047
299.999
300.874
301.919
303.621
306.238
288.763
289.83
290.602
291.097
291.455
291.769
292.069
292.359
292.632
292.878
293.094
293.282
293.448
293.601
293.747
293.89
294.032
294.176
294.324
294.479
294.645
294.833
295.062
295.356
295.742
296.222
296.794
297.485
298.319
299.251
300.154
300.997
302.024
303.708
306.265
288.767
289.838
290.612
291.11
291.472
291.792
292.1
292.4
292.684
292.942
293.167
293.359
293.526
293.677
293.819
293.957
294.094
294.233
294.374
294.522
294.68
294.857
295.07
295.35
295.735
296.238
296.85
297.57
298.403
299.311
300.197
301.031
302.045
303.708
306.262
288.768
289.842
290.617
291.113
291.476
291.797
292.108
292.414
292.708
292.979
293.217
293.421
293.596
293.75
293.892
294.027
294.161
294.295
294.431
294.571
294.719
294.879
295.066
295.304
295.638
296.116
296.745
297.495
298.343
299.254
300.145
300.979
301.987
303.647
306.231
288.77
289.848
290.625
291.122
291.483
291.804
292.115
292.422
292.72
292.999
293.248
293.465
293.651
293.814
293.96
294.098
294.232
294.364
294.497
294.633
294.774
294.923
295.088
295.284
295.541
295.911
296.451
297.173
298.041
298.993
299.934
300.804
301.819
303.473
306.147
288.77
289.851
290.628
291.124
291.486
291.807
292.117
292.423
292.723
293.011
293.272
293.5
293.697
293.869
294.024
294.167
294.305
294.44
294.574
294.711
294.852
295
295.156
295.329
295.541
295.839
296.277
296.909
297.754
298.755
299.786
300.724
301.761
303.405
306.118
288.771
289.855
290.629
291.124
291.486
291.807
292.117
292.422
292.723
293.011
293.283
293.528
293.738
293.92
294.083
294.232
294.375
294.515
294.656
294.799
294.947
295.102
295.265
295.441
295.643
295.896
296.273
296.863
297.693
298.718
299.782
300.727
301.765
303.412
306.124
288.775
289.861
290.631
291.124
291.486
291.806
292.115
292.419
292.719
293.009
293.282
293.536
293.767
293.963
294.135
294.292
294.439
294.584
294.73
294.881
295.039
295.211
295.4
295.614
295.859
296.146
296.507
297.032
297.828
298.862
299.931
300.865
301.9
303.563
306.199
288.777
289.862
290.631
291.119
291.476
291.791
292.093
292.392
292.689
292.983
293.267
293.534
293.776
293.992
294.179
294.344
294.497
294.645
294.794
294.95
295.117
295.305
295.526
295.795
296.12
296.504
296.968
297.566
298.366
299.339
300.304
301.164
302.174
303.815
306.311
288.778
289.862
290.624
291.107
291.46
291.77
292.066
292.356
292.646
292.935
293.223
293.502
293.763
293.996
294.202
294.382
294.543
294.695
294.846
295.001
295.17
295.362
295.6
295.908
296.299
296.775
297.338
298.009
298.815
299.715
300.578
301.376
302.356
303.963
306.367
288.778
289.859
290.618
291.098
291.447
291.751
292.039
292.32
292.598
292.878
293.161
293.444
293.719
293.974
294.202
294.4
294.574
294.733
294.885
295.039
295.203
295.388
295.619
295.923
296.326
296.837
297.453
298.17
298.982
299.844
300.664
301.438
302.4
303.984
306.367
288.774
289.848
290.602
291.08
291.425
291.723
292.003
292.273
292.539
292.806
293.077
293.357
293.641
293.918
294.173
294.397
294.591
294.762
294.92
295.074
295.232
295.406
295.616
295.889
296.258
296.755
297.382
298.124
298.953
299.815
300.632
301.402
302.359
303.942
306.345
288.769
289.837
290.588
291.064
291.406
291.699
291.97
292.23
292.484
292.737
292.995
293.262
293.542
293.829
294.11
294.366
294.589
294.781
294.952
295.112
295.271
295.44
295.633
295.876
296.197
296.63
297.207
297.928
298.765
299.652
300.495
301.285
302.246
303.829
306.293
288.766
289.83
290.58
291.056
291.396
291.685
291.95
292.201
292.443
292.682
292.923
293.174
293.439
293.722
294.016
294.302
294.56
294.783
294.976
295.151
295.318
295.49
295.68
295.906
296.197
296.599
297.136
297.822
298.648
299.551
300.43
301.244
302.206
303.783
306.272
288.762
289.821
290.573
291.051
291.391
291.677
291.936
292.179
292.41
292.637
292.863
293.095
293.341
293.608
293.898
294.201
294.494
294.756
294.981
295.177
295.36
295.543
295.743
295.975
296.26
296.627
297.134
297.812
298.636
299.545
300.429
301.244
302.207
303.783
306.272
288.759
289.817
290.572
291.051
291.391
291.676
291.935
292.175
292.401
292.616
292.825
293.04
293.266
293.511
293.783
294.083
294.395
294.693
294.958
295.185
295.389
295.588
295.803
296.053
296.36
296.75
297.25
297.893
298.696
299.597
300.476
301.285
302.245
303.818
306.29
288.758
289.816
290.573
291.054
291.394
291.679
291.936
292.175
292.401
292.615
292.821
293.022
293.227
293.45
293.696
293.975
294.283
294.601
294.901
295.163
295.392
295.607
295.833
296.094
296.418
296.836
297.373
298.042
298.841
299.716
300.569
301.364
302.31
303.86
306.305
288.757
289.819
290.584
291.071
291.414
291.698
291.954
292.19
292.411
292.62
292.823
293.022
293.221
293.425
293.647
293.9
294.187
294.501
294.819
295.112
295.368
295.599
295.83
296.088
296.407
296.827
297.377
298.062
298.868
299.742
300.593
301.384
302.324
303.863
306.304
288.758
289.827
290.602
291.096
291.443
291.732
291.99
292.226
292.445
292.649
292.844
293.034
293.225
293.423
293.633
293.864
294.128
294.428
294.749
295.06
295.339
295.59
295.828
296.077
296.367
296.741
297.251
297.93
298.75
299.64
300.501
301.299
302.247
303.799
306.274
288.76
289.836
290.619
291.117
291.469
291.763
292.026
292.267
292.489
292.694
292.887
293.071
293.253
293.439
293.636
293.856
294.106
294.393
294.712
295.035
295.335
295.605
295.853
296.094
296.363
296.697
297.137
297.732
298.501
299.381
300.265
301.098
302.065
303.627
306.201
288.766
289.856
290.648
291.151
291.507
291.804
292.071
292.316
292.541
292.749
292.942
293.125
293.302
293.479
293.665
293.871
294.106
294.383
294.701
295.037
295.363
295.664
295.936
296.186
296.435
296.726
297.128
297.683
298.416
299.29
300.197
301.049
302.021
303.585
306.183
288.774
289.879
290.68
291.188
291.549
291.851
292.123
292.373
292.602
292.814
293.01
293.193
293.367
293.539
293.716
293.91
294.133
294.4
294.718
295.07
295.426
295.768
296.079
296.357
296.623
296.906
297.246
297.726
298.419
299.289
300.197
301.048
302.021
303.589
306.189
288.783
289.903
290.712
291.225
291.591
291.899
292.177
292.432
292.667
292.884
293.083
293.268
293.442
293.61
293.78
293.963
294.171
294.424
294.735
295.102
295.495
295.886
296.247
296.574
296.886
297.209
297.582
298.058
298.688
299.476
300.316
301.122
302.081
303.657
306.226
288.791
289.924
290.739
291.256
291.627
291.941
292.225
292.487
292.729
292.951
293.156
293.344
293.519
293.686
293.851
294.023
294.215
294.447
294.741
295.108
295.527
295.961
296.378
296.767
297.141
297.527
297.957
298.474
299.108
299.843
300.599
301.343
302.263
303.803
306.282
288.798
289.941
290.762
291.283
291.657
291.976
292.265
292.534
292.782
293.012
293.222
293.415
293.593
293.761
293.923
294.087
294.263
294.47
294.733
295.079
295.506
295.97
296.428
296.873
297.311
297.762
298.253
298.81
299.448
300.143
300.843
301.545
302.438
303.945
306.336
288.803
289.953
290.778
291.302
291.679
292.003
292.299
292.573
292.828
293.064
293.281
293.48
293.662
293.833
293.994
294.152
294.316
294.5
294.727
295.025
295.421
295.896
296.397
296.881
297.361
297.861
298.398
298.989
299.633
300.307
300.979
301.663
302.542
304.023
306.363
288.806
289.959
290.788
291.314
291.696
292.025
292.327
292.608
292.869
293.112
293.334
293.539
293.727
293.9
294.064
294.22
294.377
294.543
294.737
294.985
295.315
295.745
296.25
296.788
297.325
297.861
298.419
299.027
299.678
300.346
301.009
301.69
302.568
304.04
306.365
288.807
289.963
290.793
291.321
291.706
292.04
292.347
292.635
292.903
293.152
293.382
293.592
293.786
293.964
294.13
294.288
294.442
294.6
294.774
294.979
295.243
295.593
296.047
296.578
297.148
297.741
298.358
299.002
299.671
300.343
301.006
301.688
302.566
304.037
306.361
288.807
289.964
290.795
291.325
291.712
292.049
292.361
292.654
292.929
293.185
293.422
293.641
293.841
294.026
294.197
294.358
294.512
294.667
294.83
295.014
295.237
295.528
295.909
296.384
296.932
297.526
298.158
298.824
299.518
300.219
300.907
301.611
302.509
303.994
306.341
288.808
289.969
290.8
291.33
291.719
292.059
292.374
292.671
292.951
293.213
293.457
293.683
293.891
294.083
294.261
294.426
294.584
294.74
294.902
295.08
295.286
295.546
295.889
296.319
296.827
297.397
298.016
298.682
299.385
300.098
300.8
301.516
302.427
303.936
306.321
288.809
289.971
290.802
291.332
291.723
292.065
292.384
292.685
292.969
293.236
293.487
293.72
293.936
294.136
294.32
294.491
294.653
294.813
294.979
295.161
295.37
295.622
295.934
296.33
296.821
297.378
297.994
298.66
299.364
300.074
300.772
301.485
302.402
303.929
306.32
288.811
289.975
290.806
291.336
291.727
292.071
292.392
292.695
292.982
293.254
293.509
293.749
293.972
294.179
294.369
294.545
294.712
294.875
295.043
295.228
295.444
295.704
296.021
296.403
296.855
297.387
297.995
298.661
299.364
300.074
300.772
301.483
302.401
303.932
306.323
288.812
289.977
290.809
291.339
291.731
292.077
292.4
292.706
292.996
293.27
293.53
293.775
294.005
294.218
294.415
294.597
294.768
294.933
295.101
295.285
295.501
295.766
296.093
296.485
296.939
297.456
298.036
298.682
299.374
300.078
300.771
301.484
302.401
303.931
306.324
288.813
289.98
290.811
291.342
291.734
292.081
292.407
292.715
293.007
293.284
293.547
293.797
294.032
294.252
294.456
294.643
294.818
294.984
295.151
295.332
295.544
295.806
296.136
296.538
297.005
297.531
298.112
298.748
299.424
300.111
300.788
301.489
302.401
303.925
306.321
288.814
289.981
290.813
291.344
291.737
292.085
292.412
292.722
293.015
293.293
293.559
293.813
294.055
294.283
294.494
294.688
294.867
295.035
295.201
295.375
295.574
295.821
296.139
296.54
297.016
297.553
298.143
298.781
299.451
300.127
300.794
301.489
302.399
303.923
306.318
288.814
289.982
290.816
291.348
291.742
292.091
292.42
292.731
293.024
293.301
293.567
293.824
294.071
294.307
294.528
294.731
294.916
295.087
295.251
295.419
295.604
295.828
296.116
296.493
296.966
297.517
298.122
298.767
299.437
300.108
300.771
301.465
302.375
303.902
306.307
288.813
289.982
290.818
291.351
291.746
292.098
292.428
292.74
293.034
293.311
293.576
293.834
294.085
294.328
294.559
294.772
294.966
295.144
295.311
295.476
295.649
295.849
296.103
296.43
296.857
297.383
297.985
298.635
299.311
299.991
300.664
301.365
302.278
303.813
306.267
288.814
289.987
290.825
291.359
291.755
292.108
292.44
292.752
293.045
293.321
293.586
293.845
294.1
294.352
294.594
294.821
295.028
295.215
295.389
295.556
295.724
295.907
296.125
296.417
296.797
297.277
297.853
298.499
299.19
299.894
300.588
301.298
302.213
303.754
306.239
288.816
289.995
290.835
291.37
291.768
292.123
292.457
292.77
293.062
293.336
293.597
293.854
294.111
294.368
294.62
294.862
295.086
295.289
295.475
295.65
295.822
296.002
296.204
296.455
296.796
297.25
297.809
298.456
299.16
299.876
300.576
301.288
302.204
303.749
306.238
288.82
290.008
290.851
291.387
291.786
292.144
292.48
292.795
293.087
293.359
293.62
293.875
294.133
294.393
294.654
294.906
295.143
295.361
295.561
295.75
295.933
296.12
296.324
296.565
296.871
297.277
297.811
298.457
299.162
299.88
300.58
301.292
302.21
303.761
306.247
288.826
290.023
290.867
291.403
291.805
292.165
292.503
292.818
293.109
293.38
293.637
293.891
294.15
294.415
294.685
294.949
295.199
295.433
295.652
295.857
296.056
296.257
296.475
296.725
297.033
297.429
297.939
298.561
299.259
299.967
300.653
301.354
302.271
303.824
306.276
288.833
290.039
290.886
291.423
291.826
292.189
292.528
292.844
293.133
293.401
293.655
293.905
294.162
294.429
294.705
294.979
295.245
295.496
295.733
295.957
296.176
296.4
296.641
296.914
297.241
297.648
298.157
298.767
299.439
300.115
300.773
301.457
302.365
303.906
306.311
288.84
290.057
290.907
291.445
291.85
292.215
292.557
292.872
293.16
293.425
293.674
293.92
294.172
294.437
294.715
294.998
295.276
295.543
295.797
296.041
296.282
296.532
296.803
297.109
297.468
297.901
298.42
299.019
299.661
300.301
300.929
301.592
302.486
304.005
306.351
288.847
290.076
290.929
291.468
291.876
292.244
292.587
292.902
293.188
293.449
293.694
293.934
294.181
294.442
294.719
295.005
295.29
295.568
295.835
296.096
296.358
296.632
296.932
297.271
297.665
298.125
298.655
299.241
299.854
300.462
301.066
301.717
302.6
304.095
306.387
288.854
290.097
290.955
291.496
291.907
292.278
292.622
292.937
293.22
293.478
293.718
293.953
294.195
294.451
294.723
295.006
295.291
295.573
295.847
296.117
296.389
296.676
296.993
297.353
297.769
298.247
298.782
299.358
299.951
300.54
301.132
301.778
302.66
304.144
306.405
288.863
290.121
290.984
291.528
291.943
292.318
292.664
292.977
293.258
293.512
293.748
293.979
294.218
294.472
294.742
295.023
295.306
295.589
295.865
296.137
296.41
296.696
297.012
297.372
297.792
298.275
298.813
299.388
299.975
300.558
301.147
301.791
302.673
304.154
306.407
288.874
290.151
291.02
291.567
291.986
292.365
292.713
293.025
293.302
293.551
293.784
294.013
294.251
294.508
294.783
295.068
295.356
295.642
295.921
296.194
296.465
296.746
297.053
297.404
297.813
298.288
298.822
299.394
299.979
300.561
301.149
301.796
302.68
304.162
306.412
288.887
290.186
291.059
291.609
292.033
292.418
292.767
293.077
293.349
293.593
293.82
294.046
294.285
294.548
294.833
295.13
295.431
295.726
296.012
296.29
296.563
296.844
297.146
297.487
297.885
298.346
298.866
299.426
300
300.576
301.161
301.807
302.695
304.183
306.422
288.902
290.222
291.099
291.652
292.084
292.475
292.826
293.134
293.4
293.637
293.856
294.076
294.313
294.581
294.878
295.192
295.509
295.82
296.118
296.405
296.686
296.971
297.274
297.611
297.998
298.444
298.947
299.489
300.049
300.612
301.189
301.832
302.721
304.207
306.434
288.916
290.255
291.136
291.695
292.135
292.534
292.889
293.194
293.453
293.68
293.89
294.1
294.33
294.599
294.906
295.239
295.579
295.909
296.223
296.523
296.815
297.109
297.417
297.754
298.136
298.572
299.059
299.585
300.127
300.674
301.24
301.876
302.76
304.24
306.449
288.928
290.283
291.168
291.733
292.184
292.593
292.954
293.257
293.509
293.725
293.921
294.117
294.334
294.593
294.904
295.254
295.621
295.978
296.312
296.629
296.936
297.245
297.565
297.911
298.296
298.727
299.202
299.707
300.225
300.754
301.306
301.932
302.809
304.278
306.465
288.937
290.304
291.194
291.766
292.229
292.652
293.021
293.324
293.569
293.773
293.955
294.132
294.326
294.565
294.862
295.218
295.61
295.996
296.357
296.698
297.025
297.353
297.691
298.051
298.443
298.872
299.334
299.82
300.321
300.834
301.373
301.99
302.858
304.315
306.475
288.943
290.317
291.213
291.792
292.267
292.707
293.087
293.394
293.634
293.827
293.994
294.153
294.322
294.52
294.778
295.111
295.511
295.933
296.333
296.701
297.051
297.398
297.752
298.124
298.522
298.95
299.406
299.883
300.375
300.882
301.416
302.028
302.885
304.32
306.474
288.944
290.321
291.224
291.811
292.297
292.755
293.151
293.465
293.704
293.89
294.044
294.185
294.328
294.49
294.688
294.957
295.314
295.734
296.172
296.599
297.003
297.384
297.751
298.129
298.53
298.957
299.41
299.883
300.375
300.885
301.421
302.028
302.878
304.306
306.463
288.941
290.315
291.226
291.82
292.316
292.791
293.205
293.532
293.776
293.959
294.105
294.233
294.356
294.486
294.635
294.824
295.091
295.445
295.865
296.315
296.767
297.21
297.646
298.074
298.504
298.945
299.402
299.878
300.371
300.881
301.417
302.024
302.867
304.282
306.446
288.936
290.305
291.225
291.824
292.326
292.814
293.247
293.591
293.845
294.032
294.176
294.297
294.407
294.516
294.631
294.766
294.941
295.186