/*--------------------------------*- C++ -*----------------------------------*\
| =========                 |                                                 |
| \\      /  F ield         | OpenFOAM: The Open Source CFD Toolbox           |
|  \\    /   O peration     | Version:  2.0.x                                 |
|   \\  /    A nd           | Web:      www.OpenFOAM.org                      |
|    \\/     M anipulation  |                                                 |
\*---------------------------------------------------------------------------*/
FoamFile
{
    version     2.0;
    format      ascii;
    class       volVectorField;
    location    "800";
    object      U;
}
// * * * * * * * * * * * * * * * * * * * * * * * * * * * * * * * * * * * * * //

dimensions      [0 1 -1 0 0 0 0];

internalField   nonuniform List<vector> 
78750
(
(-0.00169566 0.0141955 0.0144501)
(-0.00687875 0.0161713 0.0250437)
(-0.0136255 0.00765753 0.0269833)
(-0.0198322 -0.00148589 0.0264245)
(-0.0244072 -0.00824464 0.0258501)
(-0.0273045 -0.0143797 0.0254634)
(-0.0282912 -0.0201701 0.025001)
(-0.0274111 -0.0259375 0.0245069)
(-0.0258081 -0.0312738 0.0240891)
(-0.0213132 -0.036815 0.0234773)
(-0.0155957 -0.0412191 0.0229054)
(-0.00876002 -0.0438603 0.0224339)
(-0.00146709 -0.0450457 0.0220762)
(0.00598801 -0.0454172 0.021767)
(0.013384 -0.0456921 0.0214668)
(0.0210253 -0.0462831 0.0207853)
(0.0278577 -0.0455833 0.020249)
(0.0342036 -0.0439561 0.0198644)
(0.0398706 -0.0415935 0.0196836)
(0.0447158 -0.0387609 0.0196491)
(0.0488267 -0.0357 0.0196947)
(0.0519281 -0.0328776 0.0196802)
(0.0545129 -0.0281381 0.0203813)
(0.0559219 -0.0244944 0.0210397)
(0.0566096 -0.0218772 0.0214918)
(0.0564975 -0.018143 0.0219359)
(0.0554156 -0.0142972 0.0224048)
(0.0534116 -0.010341 0.0229015)
(0.0502242 -0.0061245 0.0234105)
(0.0458919 -0.00135744 0.0238629)
(0.0404022 0.00421064 0.0241805)
(0.0338496 0.00901942 0.02484)
(0.0255066 0.0143339 0.0256954)
(0.0158712 0.0218665 0.0255072)
(0.00479031 0.0262681 0.0159548)
(0.000672273 0.0128637 0.00808716)
(0.00267282 0.027796 0.0170414)
(0.00395448 0.0312086 0.0206664)
(0.00518396 0.027731 0.0218044)
(0.00694509 0.0161289 0.0220072)
(0.0103422 -0.0021567 0.0215863)
(0.0133337 -0.0156737 0.0210907)
(0.0171577 -0.0324281 0.0201117)
(0.0222812 -0.0491488 0.0186805)
(0.0267687 -0.0668404 0.0170759)
(0.031093 -0.0804829 0.015554)
(0.034699 -0.0872376 0.0139721)
(0.0379465 -0.0897988 0.0125486)
(0.0413979 -0.089711 0.010991)
(0.0435928 -0.0882417 0.010268)
(0.0459985 -0.0827622 0.00992134)
(0.0476459 -0.076238 0.00984973)
(0.048849 -0.069364 0.00994953)
(0.0499269 -0.0621453 0.0104957)
(0.0505783 -0.0551458 0.0110305)
(0.0509463 -0.0482833 0.0116187)
(0.0509836 -0.0415529 0.0122441)
(0.05065 -0.035273 0.0124744)
(0.0499884 -0.0288525 0.0126201)
(0.0488228 -0.0221603 0.0127552)
(0.0472024 -0.0150841 0.0129179)
(0.0451235 -0.0076 0.0130777)
(0.0426292 0.000976037 0.0134792)
(0.0385197 0.0128172 0.0147257)
(0.0354394 0.0196894 0.0154866)
(0.0301678 0.0301043 0.0162889)
(0.0248124 0.0424481 0.0177172)
(0.017705 0.0582883 0.019489)
(0.00943849 0.0750313 0.019487)
(0.00248245 0.0716471 0.0129072)
(-0.000499157 -0.00704375 0.00811946)
(0.000740732 -0.0165256 0.0159483)
(0.00439532 -0.0286791 0.0189865)
(0.0101642 -0.0444831 0.0200531)
(0.0170613 -0.0619054 0.0201207)
(0.023987 -0.0783705 0.0195586)
(0.0304383 -0.0925391 0.0185672)
(0.0363093 -0.104 0.017224)
(0.0408801 -0.111359 0.0159146)
(0.044528 -0.111543 0.0142653)
(0.0457731 -0.109793 0.0128529)
(0.0468851 -0.106018 0.011117)
(0.0473982 -0.101241 0.0102253)
(0.0470507 -0.0960211 0.00919485)
(0.0465193 -0.0905123 0.00811638)
(0.0458493 -0.0847896 0.00709933)
(0.0451794 -0.0788322 0.00623074)
(0.0445893 -0.0727505 0.00549792)
(0.0438836 -0.0668795 0.00462965)
(0.0432624 -0.0607486 0.0039706)
(0.0425356 -0.0543044 0.00351938)
(0.0416764 -0.0474557 0.0033083)
(0.0406216 -0.0400976 0.00339167)
(0.0392937 -0.0323271 0.00370413)
(0.0377277 -0.0245063 0.00386662)
(0.0358943 -0.0161542 0.00421221)
(0.0337536 -0.00639105 0.00501375)
(0.0307287 0.0061181 0.00661662)
(0.0285763 0.0141576 0.0076262)
(0.0250773 0.0266418 0.00855208)
(0.0217305 0.0401767 0.0104936)
(0.0173102 0.0581945 0.0122994)
(0.011533 0.0813976 0.014428)
(0.00574835 0.0985224 0.0146751)
(0.00156973 0.0874367 0.00983248)
(-5.60568e-05 -0.0073917 0.0059581)
(0.00221002 -0.0347319 0.0115259)
(0.00690324 -0.0641574 0.0137932)
(0.0126207 -0.0890217 0.014438)
(0.0181497 -0.106725 0.014042)
(0.0229136 -0.117414 0.0129136)
(0.0265595 -0.122367 0.0112768)
(0.0294655 -0.123202 0.00915173)
(0.0310563 -0.121825 0.00765781)
(0.03226 -0.118312 0.00595657)
(0.0331252 -0.113899 0.00498436)
(0.0335169 -0.108782 0.00338721)
(0.0335774 -0.1034 0.000977852)
(0.0337111 -0.0977133 -0.00127998)
(0.0336646 -0.0918691 -0.00336976)
(0.0335367 -0.0858834 -0.00525493)
(0.0333477 -0.0797013 -0.0068875)
(0.0330934 -0.0732337 -0.00821732)
(0.0327427 -0.0664087 -0.00920846)
(0.0322523 -0.0592127 -0.00986263)
(0.0316047 -0.0516415 -0.0101901)
(0.0308077 -0.0436995 -0.0102145)
(0.0298846 -0.0353871 -0.00996428)
(0.0288252 -0.0267546 -0.0095032)
(0.0276287 -0.0178317 -0.00902376)
(0.0262367 -0.00770056 -0.00814012)
(0.0242803 0.00434548 -0.00653922)
(0.0227807 0.012793 -0.00526541)
(0.0206014 0.0245933 -0.00340348)
(0.0184858 0.0368776 -0.000154862)
(0.0156057 0.0523543 0.00326862)
(0.0124355 0.0737798 0.00756108)
(0.00782074 0.100894 0.0115355)
(0.00348068 0.115401 0.0123943)
(0.000761435 0.0963834 0.00858843)
(0.000167182 -0.0227565 0.00470384)
(0.00342353 -0.0723974 0.0107345)
(0.00799925 -0.110034 0.0142151)
(0.012269 -0.131528 0.0155632)
(0.0156023 -0.141107 0.0155234)
(0.0183894 -0.143953 0.0146718)
(0.0204064 -0.143417 0.0137591)
(0.0222488 -0.14066 0.0125285)
(0.0238908 -0.135901 0.0106914)
(0.0242094 -0.129576 0.00804683)
(0.0253538 -0.120479 0.00516323)
(0.0253552 -0.111745 0.00191659)
(0.0250324 -0.103937 -0.00164012)
(0.0248565 -0.0964562 -0.00488166)
(0.0245271 -0.0893038 -0.00764898)
(0.0241709 -0.0824052 -0.00991074)
(0.023794 -0.0756191 -0.0117035)
(0.0233776 -0.0687937 -0.0130831)
(0.0229028 -0.061813 -0.0140991)
(0.0223516 -0.054617 -0.0147897)
(0.0217244 -0.0472057 -0.0151891)
(0.0210385 -0.0396663 -0.0153788)
(0.0203192 -0.0319363 -0.0154002)
(0.0195714 -0.0238157 -0.0152482)
(0.0187537 -0.0149469 -0.0148522)
(0.017832 -0.0049084 -0.014183)
(0.0169146 0.00609815 -0.0131888)
(0.0160853 0.0146465 -0.0124268)
(0.0149584 0.0265058 -0.0110297)
(0.0135779 0.040378 -0.00905012)
(0.0117042 0.0581352 -0.0057598)
(0.0091635 0.0832774 -0.000629275)
(0.00559912 0.112483 0.00479914)
(0.00232956 0.124917 0.00708168)
(0.000351046 0.0992552 0.00515551)
(0.000429274 -0.0370494 0.00507394)
(0.00311512 -0.101334 0.013014)
(0.00579046 -0.139176 0.0171598)
(0.0077251 -0.155469 0.0180302)
(0.00907834 -0.161059 0.0173646)
(0.0102833 -0.161536 0.0160036)
(0.0112872 -0.158934 0.0144661)
(0.0122288 -0.152811 0.0122608)
(0.0127706 -0.143618 0.00947506)
(0.0134336 -0.132053 0.00633684)
(0.0131366 -0.120522 0.00150535)
(0.0132738 -0.109274 -0.0035295)
(0.0133041 -0.0993567 -0.00815393)
(0.0130908 -0.0906866 -0.0118865)
(0.0129793 -0.0830426 -0.014726)
(0.0129326 -0.0759502 -0.0168054)
(0.0129313 -0.0690027 -0.0182609)
(0.0129468 -0.0619385 -0.0191899)
(0.0129425 -0.0546244 -0.0196533)
(0.0129041 -0.0470669 -0.0196978)
(0.0127995 -0.0396029 -0.0195187)
(0.012644 -0.0322208 -0.0192043)
(0.0124304 -0.0247511 -0.0187989)
(0.0121664 -0.0169391 -0.018319)
(0.011844 -0.00842373 -0.0177356)
(0.0114866 0.000892395 -0.0169492)
(0.0112187 0.00899079 -0.0162206)
(0.0109014 0.0187304 -0.0152699)
(0.0103718 0.0300751 -0.0140805)
(0.00955339 0.0446405 -0.0124876)
(0.0083803 0.0646007 -0.00964488)
(0.00652527 0.0924903 -0.00473979)
(0.0039126 0.121537 0.00146352)
(0.00139348 0.13237 0.00341005)
(-5.40433e-05 0.0997091 0.00219973)
(0.000261642 -0.0486229 0.00602767)
(0.00166121 -0.12018 0.0155063)
(0.00277933 -0.155571 0.0203311)
(0.00355106 -0.168085 0.0218287)
(0.00415256 -0.171156 0.0218843)
(0.00467288 -0.169777 0.0212431)
(0.00514695 -0.16488 0.0198055)
(0.00553341 -0.156854 0.0174368)
(0.00565556 -0.145839 0.013909)
(0.00611852 -0.13244 0.00914594)
(0.00612014 -0.118462 0.00388769)
(0.00626581 -0.105335 -0.00150563)
(0.00604477 -0.0939426 -0.00645651)
(0.00623907 -0.0848995 -0.0108706)
(0.00634576 -0.0774436 -0.0141174)
(0.00654294 -0.0707313 -0.0164508)
(0.00680533 -0.0642022 -0.018075)
(0.00711027 -0.0575568 -0.0191306)
(0.00742671 -0.0506627 -0.0197086)
(0.00774399 -0.0435307 -0.0198778)
(0.00802512 -0.0363883 -0.0197677)
(0.00824561 -0.0293194 -0.0195005)
(0.00839564 -0.0221551 -0.0191248)
(0.00847434 -0.0146659 -0.0186686)
(0.00850463 -0.0066584 -0.0181587)
(0.00852091 0.00173004 -0.0176829)
(0.00852551 0.00952065 -0.0172417)
(0.00843909 0.0193113 -0.01664)
(0.0081791 0.0312204 -0.0157461)
(0.00767385 0.0467839 -0.0142348)
(0.00678583 0.068653 -0.0113897)
(0.00534626 0.0984357 -0.00632117)
(0.00332322 0.127349 -0.00116013)
(0.00125872 0.136961 0.000771168)
(-3.52556e-05 0.0996381 0.000822)
(0.000202177 -0.0558032 0.00690997)
(0.000827865 -0.133112 0.017198)
(0.00100235 -0.170227 0.0224937)
(0.00103841 -0.183044 0.0244548)
(0.00104759 -0.185929 0.0249275)
(0.00109925 -0.183837 0.0246048)
(0.00121021 -0.177687 0.0235667)
(0.00138589 -0.167676 0.0216742)
(0.00166899 -0.154218 0.0187182)
(0.00206434 -0.138355 0.0145576)
(0.0025845 -0.121734 0.00927375)
(0.0031385 -0.106286 0.00343904)
(0.00377621 -0.093359 -0.00207591)
(0.00412009 -0.0830684 -0.00640007)
(0.00450943 -0.0745725 -0.0103067)
(0.00485015 -0.0672785 -0.0134916)
(0.00517616 -0.060414 -0.0157798)
(0.00553719 -0.0535557 -0.0173514)
(0.00591407 -0.0465021 -0.0183362)
(0.00631221 -0.0392325 -0.0188286)
(0.00667597 -0.0319865 -0.0189737)
(0.00698863 -0.0248099 -0.0188819)
(0.00723087 -0.0175819 -0.0186237)
(0.00740479 -0.0101726 -0.0182666)
(0.00751123 -0.00246324 -0.0178896)
(0.00761103 0.00522643 -0.0174877)
(0.00764061 0.0128739 -0.017109)
(0.00751807 0.0226225 -0.0166024)
(0.0072556 0.0348285 -0.0158636)
(0.00677073 0.0511976 -0.0145729)
(0.00594221 0.0745261 -0.011946)
(0.00460821 0.105566 -0.00747956)
(0.00286429 0.133864 -0.00297129)
(0.00109495 0.142129 -0.000674891)
(-5.28157e-05 0.100209 4.8194e-05)
(3.17373e-05 -0.0604907 0.00736279)
(2.34664e-06 -0.139967 0.017563)
(-0.000425872 -0.176213 0.0228221)
(-0.000842547 -0.188232 0.0251891)
(-0.00121561 -0.190787 0.0261985)
(-0.00151117 -0.188555 0.0264762)
(-0.00167743 -0.182535 0.0261079)
(-0.00167644 -0.173094 0.0250405)
(-0.0014559 -0.160573 0.0231232)
(-0.000963043 -0.145539 0.0201346)
(-0.000184944 -0.128869 0.0158912)
(0.000770287 -0.111821 0.0104401)
(0.00171951 -0.0960354 0.00430343)
(0.00258382 -0.0828921 -0.00159534)
(0.00316428 -0.0725428 -0.00622742)
(0.00355821 -0.0640514 -0.00967188)
(0.00392151 -0.0566658 -0.0126814)
(0.00427281 -0.0497615 -0.01487)
(0.00465293 -0.0428812 -0.0163255)
(0.0050592 -0.0358553 -0.0172061)
(0.00549186 -0.0287092 -0.0176293)
(0.00587454 -0.0215858 -0.0177502)
(0.00621078 -0.0144064 -0.0176587)
(0.00649422 -0.00707426 -0.0174355)
(0.0067172 0.000370471 -0.017179)
(0.00691077 0.00750602 -0.0168816)
(0.00701062 0.0159063 -0.0165051)
(0.00693368 0.0257954 -0.016021)
(0.00669499 0.0383068 -0.0153374)
(0.00623533 0.0554724 -0.0141805)
(0.0054616 0.0800862 -0.0119182)
(0.00425124 0.112179 -0.00806347)
(0.00271115 0.139909 -0.00410683)
(0.00113206 0.146953 -0.00171442)
(1.68914e-05 0.10138 -0.000595672)
(-4.95429e-06 -0.063131 0.00757672)
(-0.000421787 -0.145869 0.0172091)
(-0.00124515 -0.18494 0.0221976)
(-0.00196502 -0.199015 0.0247368)
(-0.00254216 -0.202467 0.0260778)
(-0.00300979 -0.200796 0.0268852)
(-0.00329235 -0.195083 0.0272618)
(-0.00337048 -0.185755 0.0271977)
(-0.00320343 -0.173238 0.0265827)
(-0.00275488 -0.158146 0.0252027)
(-0.00199848 -0.141239 0.0227918)
(-0.00094156 -0.123337 0.0191154)
(0.000321139 -0.105418 0.0141133)
(0.00158201 -0.0887832 0.00813685)
(0.00265966 -0.0747443 0.00206307)
(0.00345652 -0.0637099 -0.00312402)
(0.00398425 -0.0549165 -0.00668057)
(0.00436423 -0.0471921 -0.00966518)
(0.00469325 -0.0399856 -0.0120586)
(0.00502473 -0.0328602 -0.0137023)
(0.00538342 -0.0256394 -0.014743)
(0.00571518 -0.0183858 -0.015341)
(0.00602103 -0.0111023 -0.015628)
(0.00626822 -0.00377587 -0.0157229)
(0.00650903 0.00363592 -0.0156637)
(0.00666895 0.0108006 -0.0155033)
(0.0067089 0.0194818 -0.015184)
(0.0066033 0.0297849 -0.0147356)
(0.00632452 0.0428004 -0.0141033)
(0.00582012 0.0606786 -0.0130792)
(0.0050303 0.0862412 -0.0111792)
(0.00387916 0.118957 -0.00793766)
(0.00249108 0.145995 -0.00453048)
(0.00106077 0.151877 -0.00218039)
(1.03303e-05 0.102964 -0.000712159)
(-9.5955e-05 -0.0639772 0.00733591)
(-0.000830638 -0.14669 0.0157676)
(-0.00192331 -0.185976 0.0198302)
(-0.00288815 -0.200861 0.0219359)
(-0.00368811 -0.20523 0.0231294)
(-0.00436613 -0.204653 0.0239598)
(-0.00483376 -0.200266 0.0245386)
(-0.0050547 -0.192583 0.0249232)
(-0.00498333 -0.18196 0.0251048)
(-0.00458175 -0.168767 0.0249693)
(-0.00383137 -0.153455 0.0242945)
(-0.00274093 -0.136546 0.0227862)
(-0.00135567 -0.118626 0.0201447)
(0.000236112 -0.100449 0.0161801)
(0.00184937 -0.0831096 0.0110163)
(0.00323218 -0.0678992 0.00526371)
(0.00425176 -0.0555805 -0.000193494)
(0.00489849 -0.0458508 -0.00428645)
(0.00530065 -0.0375868 -0.00718729)
(0.0055558 -0.0300035 -0.00961369)
(0.00579304 -0.0226542 -0.011394)
(0.00601771 -0.015311 -0.0125689)
(0.00622373 -0.00791535 -0.013317)
(0.00641838 -0.000524238 -0.0137557)
(0.00659725 0.00648062 -0.0139207)
(0.00671153 0.0144451 -0.0138838)
(0.00668504 0.0234601 -0.0136627)
(0.00652359 0.0342002 -0.0132726)
(0.00619208 0.0478727 -0.012682)
(0.00563543 0.066598 -0.011749)
(0.00481042 0.0930514 -0.0101054)
(0.00366163 0.126119 -0.00736769)
(0.00236838 0.152188 -0.00445587)
(0.00103963 0.156794 -0.00223055)
(2.56015e-05 0.104623 -0.000570641)
(-0.000156344 -0.0639886 0.00722782)
(-0.000930481 -0.148025 0.0149925)
(-0.00193468 -0.190189 0.0183443)
(-0.00282444 -0.207021 0.0199462)
(-0.00360256 -0.212755 0.0208863)
(-0.00423407 -0.213206 0.0215273)
(-0.00470763 -0.209899 0.0220886)
(-0.0049361 -0.203374 0.0226425)
(-0.00489672 -0.194007 0.0232271)
(-0.00455563 -0.182143 0.0238135)
(-0.00389824 -0.168133 0.0242805)
(-0.00292609 -0.152338 0.0244112)
(-0.00165983 -0.135126 0.0239095)
(-0.00014249 -0.116892 0.0224359)
(0.00155023 -0.0981567 0.0196819)
(0.00328506 -0.0797525 0.0155332)
(0.00484104 -0.0628528 0.0102896)
(0.0060051 -0.0485884 0.00474689)
(0.0066936 -0.0372342 -0.000161156)
(0.00705557 -0.0280016 -0.00370393)
(0.00718496 -0.0198382 -0.006417)
(0.00720248 -0.012156 -0.00854904)
(0.00719499 -0.00455146 -0.0100575)
(0.00721433 0.00276674 -0.0110234)
(0.00723573 0.00994294 -0.0115405)
(0.0071712 0.0182466 -0.0117651)
(0.00700411 0.0276968 -0.0117306)
(0.00671385 0.0389199 -0.0114728)
(0.0062645 0.0532022 -0.01098)
(0.00561088 0.0727109 -0.0101437)
(0.00471895 0.0999424 -0.00875773)
(0.00354676 0.133183 -0.00648041)
(0.00231194 0.158201 -0.00402046)
(0.00105105 0.161577 -0.00197158)
(4.68103e-05 0.106503 -0.000274061)
(-0.000153814 -0.063393 0.00635843)
(-0.000799036 -0.14835 0.0129381)
(-0.00150499 -0.19107 0.0156974)
(-0.00205606 -0.208607 0.0169175)
(-0.00254938 -0.21528 0.0175583)
(-0.00295176 -0.216723 0.0179219)
(-0.00323716 -0.21477 0.018186)
(-0.00334007 -0.209932 0.0184561)
(-0.00323524 -0.202486 0.018819)
(-0.00289905 -0.192616 0.0193425)
(-0.0023215 -0.180487 0.0200488)
(-0.00150064 -0.166329 0.0208852)
(-0.000449985 -0.150438 0.0216987)
(0.000803525 -0.133132 0.0222254)
(0.00224703 -0.114726 0.0221051)
(0.00385023 -0.0955948 0.02093)
(0.00549944 -0.0763383 0.0183683)
(0.00702596 -0.0579157 0.0143622)
(0.00823034 -0.0415581 0.0093438)
(0.00893648 -0.0281239 0.00417754)
(0.00917326 -0.0173802 -0.000134318)
(0.00910872 -0.00830278 -0.00340316)
(0.00884056 -0.000300749 -0.00594924)
(0.00861817 0.00662771 -0.00752426)
(0.00837111 0.0144301 -0.0086604)
(0.00806361 0.0230861 -0.00929139)
(0.00767982 0.0329084 -0.00955728)
(0.00720115 0.044627 -0.00951449)
(0.00658674 0.0595267 -0.00917645)
(0.00579232 0.0797446 -0.00847441)
(0.0047953 0.107595 -0.0072823)
(0.00355495 0.14075 -0.00535873)
(0.00232886 0.1645 -0.00328202)
(0.00109282 0.166599 -0.00145491)
(6.58124e-05 0.108728 9.37265e-05)
(-0.000129315 -0.0633949 0.00586947)
(-0.000386768 -0.150981 0.0118967)
(-0.000499205 -0.197027 0.0145732)
(-0.000448122 -0.216408 0.0155922)
(-0.000387965 -0.223903 0.0159157)
(-0.000308184 -0.225942 0.0159295)
(-0.000186098 -0.224488 0.0157655)
(-4.76622e-06 -0.220135 0.0155124)
(0.000257935 -0.213199 0.0152651)
(0.000617419 -0.203904 0.0151285)
(0.00108257 -0.192442 0.0152137)
(0.00166121 -0.179028 0.0156182)
(0.00236663 -0.163922 0.0163848)
(0.0032232 -0.147393 0.0174545)
(0.00422149 -0.129681 0.0186332)
(0.00534589 -0.110983 0.0195882)
(0.00660127 -0.091511 0.0198748)
(0.00792471 -0.0716324 0.0190186)
(0.009187 -0.0520323 0.0166669)
(0.0102191 -0.0338002 0.0128225)
(0.010827 -0.0181026 0.00802637)
(0.0109186 -0.0055168 0.00318503)
(0.0105926 0.00427523 -0.000744993)
(0.0101451 0.011569 -0.00324359)
(0.00961877 0.0198243 -0.00511857)
(0.00903693 0.0287997 -0.00639677)
(0.00841178 0.038922 -0.00717093)
(0.00771946 0.0510035 -0.00751161)
(0.00692418 0.0664044 -0.00745098)
(0.00597946 0.0872361 -0.00698147)
(0.0048763 0.115555 -0.00599476)
(0.00356544 0.148451 -0.00435138)
(0.00233924 0.170891 -0.00258293)
(0.00111583 0.171782 -0.000964465)
(6.97163e-05 0.111279 0.000362129)
(-5.95193e-05 -0.0649791 0.00479479)
(0.000326301 -0.156215 0.0104272)
(0.000935556 -0.204338 0.0131721)
(0.00158298 -0.22439 0.0142189)
(0.00216927 -0.232024 0.014457)
(0.00269242 -0.234109 0.0142887)
(0.00315508 -0.232774 0.0138635)
(0.00359462 -0.228561 0.0132195)
(0.00399681 -0.221764 0.0124394)
(0.00437783 -0.212569 0.0116047)
(0.00473777 -0.201166 0.0108337)
(0.00508641 -0.187821 0.0102841)
(0.00544218 -0.172883 0.010126)
(0.00583253 -0.156712 0.0104893)
(0.00629471 -0.139587 0.0114052)
(0.00686371 -0.121652 0.0127666)
(0.00756556 -0.10295 0.0143106)
(0.00841633 -0.0835196 0.0156283)
(0.00938266 -0.0634979 0.0162031)
(0.0103489 -0.0432814 0.0155022)
(0.0111373 -0.0237075 0.0131639)
(0.0115517 -0.00613137 0.00929469)
(0.0114122 0.00776279 0.00478623)
(0.0109956 0.0167515 0.00162496)
(0.0103607 0.0260381 -0.00113196)
(0.00962112 0.0355562 -0.00319211)
(0.008822 0.0460408 -0.0046067)
(0.00796735 0.0584754 -0.00545836)
(0.00703463 0.0742864 -0.00579906)
(0.00597653 0.0956002 -0.00562299)
(0.00478741 0.124251 -0.00484798)
(0.00343395 0.156657 -0.00342105)
(0.00220596 0.177598 -0.00188448)
(0.00103899 0.177235 -0.00054097)
(4.84343e-06 0.113887 0.000503625)
(5.41866e-05 -0.0693414 0.00439438)
(0.000870308 -0.165974 0.0101584)
(0.00181154 -0.216802 0.0131726)
(0.00273812 -0.237592 0.01438)
(0.00354818 -0.245069 0.0146816)
(0.00426704 -0.246642 0.0145064)
(0.00486012 -0.244686 0.0140228)
(0.00535983 -0.239626 0.0132198)
(0.00572715 -0.231805 0.0121538)
(0.00597846 -0.221459 0.0108719)
(0.00611841 -0.208869 0.00946179)
(0.00617275 -0.194439 0.00806951)
(0.00617861 -0.178671 0.00689119)
(0.00618228 -0.162053 0.00613125)
(0.00623754 -0.144934 0.00594483)
(0.00639276 -0.127445 0.0063939)
(0.00668319 -0.109531 0.00742453)
(0.00712951 -0.091044 0.00885425)
(0.00772988 -0.0718287 0.0103646)
(0.00845419 -0.0517965 0.0115013)
(0.0092183 -0.0310795 0.0117064)
(0.00985403 -0.0104381 0.0104554)
(0.01012 0.00781368 0.00775765)
(0.00998631 0.0196407 0.00516686)
(0.00959062 0.0311401 0.00222901)
(0.00896204 0.0419116 -0.000318493)
(0.00821291 0.0530622 -0.00229686)
(0.00737818 0.0659555 -0.00368882)
(0.0064558 0.082247 -0.00449152)
(0.00540881 0.10409 -0.00466291)
(0.00423781 0.133024 -0.00411656)
(0.00293216 0.164807 -0.00287055)
(0.00179709 0.184159 -0.0015322)
(0.000748731 0.182539 -0.000398926)
(-0.00012702 0.115806 0.000409412)
(0.000135275 -0.0749961 0.00448891)
(0.00102134 -0.175941 0.0102815)
(0.00162149 -0.227756 0.0131786)
(0.00211878 -0.248338 0.0144263)
(0.00262195 -0.255236 0.0148413)
(0.00304393 -0.256252 0.0147922)
(0.00335312 -0.253547 0.0143995)
(0.00355409 -0.247529 0.0136529)
(0.00362854 -0.238596 0.0125766)
(0.00358201 -0.227042 0.0112006)
(0.00343943 -0.213256 0.00959505)
(0.00325548 -0.197786 0.00788548)
(0.00308935 -0.181275 0.00624618)
(0.00295563 -0.164302 0.00486635)
(0.00289918 -0.147232 0.00390828)
(0.00298247 -0.130178 0.00347156)
(0.00321198 -0.11302 0.00358432)
(0.00359556 -0.0954978 0.00420117)
(0.00413574 -0.0772962 0.0051985)
(0.00481348 -0.0580725 0.00636105)
(0.00558749 -0.0375685 0.00736185)
(0.00636494 -0.0160141 0.00776239)
(0.00706517 0.00460219 0.00717559)
(0.007424 0.01919 0.00586616)
(0.00736928 0.0333592 0.00378651)
(0.00716301 0.0461811 0.00149256)
(0.00667397 0.0586801 -0.000584265)
(0.00604691 0.0725031 -0.00225326)
(0.00528454 0.0895973 -0.00339277)
(0.00437032 0.112199 -0.00386801)
(0.00332264 0.141506 -0.00354133)
(0.00217405 0.172485 -0.00247203)
(0.00122964 0.190026 -0.00132814)
(0.000385896 0.186881 -0.000397373)
(-0.000233845 0.116204 0.000183429)
(0.000186496 -0.0806889 0.00479434)
(0.000390406 -0.183987 0.0104094)
(0.000193899 -0.234676 0.0131262)
(-7.80438e-05 -0.25564 0.0144957)
(-0.000447646 -0.263322 0.0151638)
(-0.000563979 -0.264133 0.0153858)
(-0.000825727 -0.260747 0.015209)
(-0.00106394 -0.253875 0.0146604)
(-0.00133786 -0.243949 0.0137533)
(-0.00162257 -0.231421 0.0125218)
(-0.00188229 -0.216846 0.0110356)
(-0.00208947 -0.200886 0.00940644)
(-0.00219763 -0.184201 0.00777578)
(-0.00214307 -0.167314 0.00628778)
(-0.00194427 -0.150525 0.00506506)
(-0.00161708 -0.133907 0.00419516)
(-0.00116321 -0.117324 0.00371775)
(-0.000609031 -0.100473 0.0036303)
(6.36969e-05 -0.0829724 0.00388897)
(0.000852795 -0.0643819 0.00440667)
(0.00174426 -0.0443382 0.00504029)
(0.00272396 -0.0229234 0.00556184)
(0.00375991 -0.0016124 0.0056595)
(0.00448484 0.0155284 0.00515335)
(0.00501286 0.0322127 0.00392187)
(0.005057 0.0472142 0.00227285)
(0.00497785 0.0616265 0.000406135)
(0.0046041 0.0769333 -0.00126606)
(0.0040536 0.0952629 -0.00255265)
(0.00331135 0.118937 -0.00323591)
(0.00242253 0.148758 -0.00310322)
(0.00147171 0.178877 -0.00221404)
(0.000738892 0.194554 -0.00125437)
(0.000119721 0.189737 -0.000467104)
(-0.000243277 0.115721 0.000112898)
(1.88707e-05 -0.0823007 0.00510371)
(-0.000373558 -0.184556 0.0102418)
(-0.00118698 -0.234998 0.0126546)
(-0.00200827 -0.255938 0.0140719)
(-0.00285832 -0.263964 0.0149431)
(-0.00375842 -0.265731 0.0155491)
(-0.00447853 -0.262807 0.0158123)
(-0.00510692 -0.256208 0.0157227)
(-0.00559916 -0.246575 0.0152955)
(-0.00592097 -0.234491 0.0145564)
(-0.00604383 -0.220535 0.013554)
(-0.00596012 -0.205275 0.0123612)
(-0.00569471 -0.189225 0.01107)
(-0.00527564 -0.172812 0.00978337)
(-0.00474155 -0.156341 0.00860424)
(-0.00416881 -0.139941 0.00762161)
(-0.00354519 -0.123564 0.00689589)
(-0.00283668 -0.106978 0.00644371)
(-0.00205345 -0.0898246 0.00624275)
(-0.00118737 -0.0716838 0.00622962)
(-0.000234281 -0.0521795 0.00630029)
(0.000842228 -0.0312637 0.00630599)
(0.00202703 -0.00976138 0.00606386)
(0.00296498 0.00970084 0.00547742)
(0.00361953 0.0282012 0.00446724)
(0.00406134 0.0459845 0.00304229)
(0.00410992 0.0624889 0.00162248)
(0.00391022 0.0797021 -8.88828e-05)
(0.00346447 0.099691 -0.00147365)
(0.00280466 0.124714 -0.00232163)
(0.00199942 0.155094 -0.00240086)
(0.00117663 0.184181 -0.0017461)
(0.000570941 0.197995 -0.000988554)
(7.76147e-05 0.19143 -0.00032572)
(-0.000174038 0.114312 0.000225476)
(-8.85112e-05 -0.0819035 0.00517756)
(-0.00108224 -0.184046 0.00899494)
(-0.00231055 -0.234549 0.0107345)
(-0.0033449 -0.255794 0.0123586)
(-0.00423192 -0.26406 0.0137604)
(-0.00512438 -0.266217 0.0148116)
(-0.00589468 -0.264282 0.0156755)
(-0.00650457 -0.258969 0.0162405)
(-0.00689266 -0.250815 0.0165139)
(-0.00702709 -0.240283 0.0165189)
(-0.00690113 -0.227787 0.016274)
(-0.00653176 -0.213697 0.0157956)
(-0.00596318 -0.198393 0.015116)
(-0.00525876 -0.182267 0.0142933)
(-0.00448107 -0.165695 0.0134057)
(-0.00367687 -0.148966 0.012542)
(-0.00288966 -0.132206 0.0117827)
(-0.00213124 -0.115356 0.0111816)
(-0.00140084 -0.0981646 0.0107475)
(-0.000651885 -0.080269 0.0104396)
(0.000191492 -0.0612695 0.0101583)
(0.00115752 -0.040871 0.00975611)
(0.00220139 -0.019128 0.00906355)
(0.00311167 0.00305504 0.00795858)
(0.00378924 0.0227289 0.006625)
(0.00429464 0.0428273 0.00497176)
(0.0043994 0.0620369 0.00316089)
(0.00421094 0.0814559 0.00155722)
(0.00373886 0.103334 3.38495e-05)
(0.00304793 0.129788 -0.00105467)
(0.00223527 0.160676 -0.00140745)
(0.00142912 0.188696 -0.00103026)
(0.000825677 0.200954 -0.000466623)
(0.000313955 0.193019 0.000147912)
(-1.76461e-05 0.113922 0.000870695)
(-0.000113315 -0.0775933 0.00393443)
(-0.00153466 -0.177418 0.00547281)
(-0.00309143 -0.22949 0.00608926)
(-0.00419511 -0.253298 0.007543)
(-0.00508115 -0.26349 0.00923674)
(-0.00579099 -0.266771 0.0107456)
(-0.00636276 -0.266129 0.0121534)
(-0.00672593 -0.26237 0.0133186)
(-0.00686515 -0.255977 0.0142654)
(-0.00676092 -0.247251 0.0150199)
(-0.00641833 -0.236426 0.0155965)
(-0.00585624 -0.223697 0.0160047)
(-0.00510586 -0.209311 0.0162493)
(-0.00421763 -0.193587 0.0163406)
(-0.0032573 -0.176906 0.0162951)
(-0.00229147 -0.159667 0.0161393)
(-0.00137401 -0.142194 0.0159114)
(-0.000535757 -0.124644 0.0156596)
(0.000229988 -0.106957 0.0154224)
(0.000942541 -0.0888631 0.0152052)
(0.0016404 -0.0699189 0.0149525)
(0.002353 -0.0496028 0.0145241)
(0.00312046 -0.027576 0.0137065)
(0.00394243 -0.00439344 0.0123087)
(0.00454158 0.0165933 0.010535)
(0.00501341 0.0393609 0.00825129)
(0.00520827 0.0613301 0.00591363)
(0.00499105 0.0831761 0.00384123)
(0.00444664 0.107043 0.00203262)
(0.00367934 0.134947 0.000636239)
(0.00280204 0.166272 -7.02237e-05)
(0.00192707 0.193267 -2.67574e-05)
(0.00122949 0.204319 0.000337868)
(0.000609685 0.195324 0.000860722)
(5.99833e-05 0.114374 0.00129112)
(-0.000198505 -0.0723938 0.00232726)
(-0.00139993 -0.168151 0.0018433)
(-0.00249037 -0.221746 0.00132085)
(-0.00322144 -0.248752 0.00183807)
(-0.00365936 -0.261594 0.00295493)
(-0.00426961 -0.267328 0.00474089)
(-0.00448458 -0.268751 0.00589445)
(-0.00463598 -0.266958 0.00695931)
(-0.00458373 -0.262383 0.00799937)
(-0.00433335 -0.255347 0.00899785)
(-0.00388938 -0.246088 0.00995442)
(-0.00327039 -0.234758 0.010885)
(-0.00247693 -0.22152 0.0118223)
(-0.00153484 -0.206555 0.0128485)
(-0.000506561 -0.190149 0.0139538)
(0.000514064 -0.172663 0.0150805)
(0.00147873 -0.154495 0.0161438)
(0.00234016 -0.13599 0.0170726)
(0.00307146 -0.117342 0.0178207)
(0.00367356 -0.0985048 0.0183699)
(0.00418478 -0.079173 0.0187189)
(0.00467691 -0.0587801 0.0188099)
(0.00520622 -0.0367375 0.0184589)
(0.00576071 -0.0130704 0.017409)
(0.00610823 0.0113672 0.0154581)
(0.00631196 0.0334736 0.0129671)
(0.0064748 0.0590672 0.00981022)
(0.00619598 0.084287 0.00691022)
(0.00555408 0.110519 0.0044925)
(0.0046609 0.139958 0.00263233)
(0.00365047 0.171825 0.001519)
(0.00262705 0.198109 0.001219)
(0.00177432 0.208368 0.00138856)
(0.000974137 0.19869 0.00182412)
(0.000177514 0.116359 0.00211135)
(-0.000206309 -0.0685697 0.000989518)
(-0.000506581 -0.163261 5.19299e-05)
(-0.000578278 -0.218361 -0.000119723)
(-0.000345314 -0.246795 -9.50689e-05)
(-0.00023434 -0.260806 -0.000156225)
(0.00010453 -0.267881 -0.00085585)
(0.000340277 -0.270695 -0.00084918)
(0.0007184 -0.270357 -0.000563756)
(0.00117759 -0.267334 -0.00016842)
(0.00174457 -0.261826 0.000266115)
(0.0024278 -0.254043 0.000721331)
(0.0032479 -0.244174 0.0010907)
(0.00405357 -0.232148 0.00155943)
(0.00463336 -0.2179 0.00264296)
(0.00523247 -0.2019 0.00425597)
(0.00583608 -0.184533 0.00634003)
(0.00640603 -0.16612 0.00877098)
(0.00688922 -0.146937 0.0114406)
(0.00729492 -0.127273 0.0141849)
(0.00763951 -0.10742 0.0165901)
(0.00788848 -0.0874243 0.0184219)
(0.00804763 -0.0668228 0.0198381)
(0.00818958 -0.0449273 0.0207015)
(0.00828956 -0.0205434 0.0208839)
(0.00821204 0.00630184 0.0197767)
(0.00814825 0.0289482 0.0178104)
(0.00802166 0.0568222 0.0144117)
(0.0075919 0.0852072 0.0106265)
(0.00685087 0.11417 0.00733449)
(0.00580585 0.145349 0.00479678)
(0.00462512 0.177839 0.00316207)
(0.00340484 0.203618 0.00248068)
(0.00234983 0.213335 0.00244458)
(0.00132195 0.203164 0.00275454)
(0.000235594 0.11933 0.00270626)
(-4.22027e-05 -0.0681361 -5.9841e-05)
(0.000515907 -0.163362 -0.00134148)
(0.00204034 -0.2199 -0.00218686)
(0.00358883 -0.249904 -0.00277771)
(0.00503626 -0.265054 -0.00342281)
(0.00629166 -0.272718 -0.00400385)
(0.00740174 -0.276059 -0.0046292)
(0.00836531 -0.276219 -0.00518919)
(0.00923027 -0.273898 -0.00572503)
(0.00996267 -0.268881 -0.00633594)
(0.0107543 -0.261266 -0.00693099)
(0.0110436 -0.250363 -0.00689457)
(0.0110001 -0.236834 -0.00582833)
(0.0111551 -0.221812 -0.00470456)
(0.0111341 -0.205619 -0.00336538)
(0.0110096 -0.188542 -0.00172643)
(0.0109061 -0.170785 0.000106164)
(0.010991 -0.152456 0.00193136)
(0.0110135 -0.133573 0.00447493)
(0.0110033 -0.114022 0.00744746)
(0.0109072 -0.0938006 0.0106672)
(0.0107505 -0.072863 0.0138076)
(0.0105118 -0.0504134 0.0167799)
(0.0101944 -0.0253566 0.019409)
(0.00984695 0.00194987 0.0208221)
(0.00951079 0.0245945 0.0205616)
(0.00920919 0.0542422 0.0182845)
(0.00870441 0.0856875 0.0143952)
(0.00781704 0.117699 0.0103371)
(0.00665765 0.150988 0.00700225)
(0.00533155 0.184394 0.00477699)
(0.00392792 0.210095 0.0037137)
(0.00267927 0.219651 0.00347114)
(0.00147185 0.209297 0.00361051)
(0.00016811 0.123722 0.00304986)
(-0.000177852 -0.0704653 -0.0018443)
(0.00135245 -0.17084 -0.00310666)
(0.00414687 -0.230672 -0.00284302)
(0.00693325 -0.261188 -0.0029245)
(0.00938755 -0.275522 -0.00340385)
(0.0114519 -0.282104 -0.00408667)
(0.0131935 -0.284284 -0.00495733)
(0.0144873 -0.283527 -0.00579868)
(0.0154752 -0.279838 -0.00688717)
(0.0163116 -0.273055 -0.00801485)
(0.0161167 -0.262456 -0.00869746)
(0.016094 -0.250052 -0.00951889)
(0.0159242 -0.236131 -0.0104232)
(0.0153976 -0.220873 -0.0108863)
(0.0148257 -0.204652 -0.0106457)
(0.0142754 -0.187724 -0.00962292)
(0.0137116 -0.170208 -0.00777164)
(0.0130974 -0.152154 -0.00515876)
(0.0125781 -0.133607 -0.00238133)