/*--------------------------------*- C++ -*----------------------------------*\
| =========                 |                                                 |
| \\      /  F ield         | OpenFOAM: The Open Source CFD Toolbox           |
|  \\    /   O peration     | Version:  2.0.x                                 |
|   \\  /    A nd           | Web:      www.OpenFOAM.org                      |
|    \\/     M anipulation  |                                                 |
\*---------------------------------------------------------------------------*/
FoamFile
{
    version     2.0;
    format      ascii;
    class       volScalarField;
    location    "950";
    object      k;
}
// * * * * * * * * * * * * * * * * * * * * * * * * * * * * * * * * * * * * * //

dimensions      [0 2 -2 0 0 0 0];

internalField   nonuniform List<scalar> 
78750
(
3.32607e-05
0.000238286
0.000336069
0.000388185
0.000428825
0.000468939
0.000504531
0.000536237
0.000563824
0.000587475
0.000607434
0.000623629
0.00063702
0.000647202
0.000656072
0.000659192
0.000670094
0.000679405
0.000683495
0.0006846
0.000683042
0.000679188
0.000673625
0.00066676
0.000658165
0.000649148
0.000639806
0.000629918
0.000619196
0.000607398
0.000593892
0.000577942
0.00055324
0.000465919
9.05756e-05
2.19122e-05
0.000128458
0.000205458
0.000291944
0.000389836
0.000484168
0.000569108
0.000640729
0.000699425
0.000747107
0.000785091
0.000814237
0.0008358
0.000850853
0.000862523
0.000864133
0.000857668
0.000842525
0.000827128
0.000811776
0.000796634
0.000781759
0.000767353
0.000753444
0.000739948
0.000724997
0.000707549
0.000689439
0.000669707
0.00064819
0.000624961
0.00059786
0.000555713
0.000465871
0.000254235
9.27976e-06
0.00013632
0.000279032
0.000431178
0.000575275
0.000693133
0.000779395
0.000839921
0.000881692
0.000909493
0.000926058
0.000933549
0.000933046
0.000925307
0.000907323
0.000885905
0.000863523
0.00084027
0.000816303
0.000791988
0.000767949
0.000745528
0.000724756
0.000704732
0.000688234
0.000675889
0.000666813
0.000659169
0.000650999
0.000639545
0.000621721
0.000594703
0.000549401
0.000479085
0.000392316
1.66288e-05
0.00021624
0.000422683
0.000601799
0.000730955
0.00081249
0.000865033
0.000900797
0.000925267
0.000940704
0.000948596
0.000952609
0.000948198
0.000931947
0.000908649
0.000880888
0.000849597
0.000816063
0.000781582
0.000747654
0.000715563
0.000685646
0.000657719
0.000634072
0.000616051
0.000602985
0.000595363
0.000592676
0.000592753
0.000592347
0.00058627
0.000566301
0.000530627
0.00047837
0.000405998
3.74958e-05
0.000280876
0.000511373
0.000685201
0.000802968
0.000881229
0.000935412
0.000973284
0.000998046
0.00101067
0.00101045
0.000998393
0.000973923
0.000943702
0.000909096
0.000869686
0.000826627
0.000782762
0.000740873
0.000702175
0.000666057
0.00063441
0.000608611
0.000589677
0.000576164
0.000566519
0.000560419
0.000557537
0.000557139
0.000557087
0.000553517
0.000539512
0.000512802
0.000471476
0.000404701
7.42485e-05
0.000367361
0.000618211
0.000785657
0.000886794
0.00094889
0.000989063
0.00101412
0.0010265
0.00102733
0.00101976
0.00100004
0.000970665
0.000932096
0.000882695
0.000824957
0.000765731
0.000709129
0.000661356
0.000627477
0.000601426
0.000576058
0.000554129
0.000536274
0.000524175
0.000518923
0.000518822
0.000522093
0.000526783
0.000530004
0.000528852
0.000518308
0.00049717
0.000461518
0.000394152
0.000113349
0.000427485
0.000669684
0.000822744
0.000916341
0.000977425
0.00101912
0.0010462
0.00106009
0.00106099
0.00104957
0.00102419
0.000986388
0.00093766
0.000881531
0.000821606
0.000760925
0.000702994
0.00065395
0.000620664
0.000598415
0.000580465
0.000562955
0.000545519
0.000530872
0.000520939
0.000514193
0.000508589
0.000505162
0.000506457
0.000506906
0.000499676
0.000481922
0.000448605
0.000375616
0.000135988
0.000460642
0.000700327
0.000851421
0.000942891
0.00100218
0.00104236
0.00106816
0.00108088
0.00108146
0.00106982
0.00104648
0.00101195
0.00096693
0.00091241
0.000850692
0.000785536
0.000720293
0.000661146
0.000617557
0.000593593
0.000581044
0.000571624
0.0005605
0.000547143
0.000532737
0.000519603
0.000509603
0.000502176
0.000495304
0.000491607
0.00048524
0.000469612
0.000437263
0.000361868
0.000137937
0.000464452
0.000705837
0.000859546
0.000953991
0.00101694
0.00106144
0.001092
0.00111013
0.00111586
0.0011098
0.00109168
0.0010623
0.00102289
0.000975138
0.000920686
0.000861158
0.000796927
0.00072889
0.000661679
0.000604232
0.000566468
0.000553821
0.000550666
0.000546022
0.000538573
0.000528604
0.000516816
0.000503881
0.000493124
0.000484159
0.000474575
0.000458888
0.000428042
0.000361119
0.000133982
0.000465246
0.000713845
0.000873236
0.00097063
0.00103481
0.00107979
0.00111055
0.00112887
0.0011354
0.00113028
0.00111313
0.00108483
0.00104691
0.00100206
0.00095314
0.000902219
0.000850415
0.000796085
0.000737917
0.000676861
0.000619852
0.000576149
0.000549648
0.000534974
0.000527341
0.000522524
0.000515465
0.000504835
0.000492808
0.000481174
0.000469169
0.000453919
0.000426799
0.000371058
0.000134666
0.00047367
0.000731481
0.000896792
0.000997284
0.00106321
0.00110945
0.00114122
0.00116026
0.00116704
0.00116207
0.00114325
0.00111158
0.0010699
0.00102185
0.00097053
0.000918082
0.000865732
0.000812771
0.000759178
0.000705041
0.000651637
0.000604319
0.000566752
0.000540728
0.000524663
0.000513659
0.000505567
0.000499497
0.000490369
0.000480039
0.000469413
0.00045468
0.000429363
0.000400525
0.000146313
0.000495235
0.000761916
0.000928345
0.00102729
0.00109122
0.00113529
0.00116458
0.00118059
0.00118355
0.00117467
0.00115157
0.00111764
0.00107574
0.00102851
0.000978379
0.000927462
0.000877091
0.000825856
0.000772845
0.000718313
0.000664309
0.000616986
0.000580058
0.000551224
0.000528934
0.000513582
0.000502294
0.00049336
0.00048573
0.000479509
0.000469909
0.00045612
0.000438228
0.000424515
0.000168262
0.000530422
0.000799628
0.000962851
0.00105884
0.00112117
0.00116431
0.00119269
0.00120747
0.00120855
0.00119711
0.00117168
0.00113584
0.00109207
0.00104321
0.000991988
0.000940457
0.000890022
0.000839266
0.000786629
0.000731559
0.000675799
0.0006255
0.000586541
0.000556762
0.000533572
0.000515778
0.000502366
0.000492546
0.000485413
0.000479453
0.000471378
0.000461071
0.000447482
0.000439728
0.000190321
0.000558188
0.000826499
0.000986293
0.00107983
0.00114093
0.0011833
0.00121082
0.00122435
0.00122385
0.00121029
0.00118378
0.00114694
0.00110267
0.00105434
0.00100469
0.00095517
0.000906092
0.000855582
0.000802551
0.000746884
0.000690175
0.000637347
0.000594928
0.000562914
0.000538571
0.000519648
0.000504615
0.000492978
0.000485777
0.000480884
0.000475322
0.000467507
0.000457432
0.000453065
0.000212295
0.000584585
0.000850204
0.00100704
0.00109944
0.00116089
0.00120424
0.00123291
0.00124754
0.0012481
0.00123535
0.00121001
0.00117419
0.00113063
0.00108241
0.00103257
0.000983663
0.000936172
0.000886186
0.000831456
0.000772304
0.000712415
0.000654229
0.000604874
0.000569058
0.000543091
0.000523483
0.000507929
0.000495712
0.000488092
0.000484425
0.000480857
0.00047532
0.000467372
0.000459987
0.000227295
0.000595296
0.000856794
0.00101345
0.00110711
0.00117044
0.00121599
0.00124705
0.00126433
0.00126789
0.00125848
0.0012373
0.00120574
0.00116542
0.00111842
0.00106731
0.00101488
0.000963412
0.000912333
0.000858279
0.000799555
0.000738055
0.000676261
0.000620319
0.000578362
0.000548331
0.000527099
0.000511385
0.000499514
0.000492767
0.000490034
0.000487933
0.000483599
0.000475451
0.000461044
0.000230442
0.000595976
0.00085743
0.0010154
0.00111323
0.00117999
0.00122895
0.00126366
0.00128498
0.00129276
0.00128827
0.00127208
0.00124537
0.00120942
0.00116564
0.00111577
0.00106199
0.0010068
0.000951165
0.000895117
0.000837718
0.000777536
0.000714232
0.000652172
0.000600347
0.000561192
0.000534068
0.000515948
0.000503857
0.000498143
0.000496691
0.000495821
0.000491995
0.000482729
0.000462847
0.000229197
0.000595451
0.000857206
0.00101576
0.00111469
0.00118382
0.00123582
0.00127413
0.00129966
0.00131228
0.00131294
0.00130212
0.00128073
0.00124987
0.00121074
0.00116471
0.00111344
0.00105903
0.00100294
0.000945468
0.000886405
0.000824803
0.000759489
0.000693
0.000633229
0.000584426
0.000548239
0.000524429
0.000510368
0.000505101
0.000504825
0.000504775
0.000500807
0.000489978
0.000467439
0.000225991
0.000590499
0.000854538
0.00101619
0.00111899
0.00119149
0.00124666
0.00128828
0.00131746
0.00133451
0.00133915
0.00133236
0.00131472
0.00128705
0.00125032
0.0012057
0.00115468
0.00109918
0.00104161
0.000982585
0.000922434
0.000860718
0.000796184
0.000729192
0.000665885
0.000611724
0.000567965
0.000537028
0.000519018
0.000513063
0.0005135
0.000513949
0.000509786
0.000498001
0.000476998
0.000221946
0.000584079
0.000849212
0.0010151
0.00111987
0.00119467
0.00125255
0.00129737
0.00133025
0.00135146
0.00136081
0.00135886
0.00134603
0.00132301
0.00129051
0.00124938
0.00120068
0.00114585
0.001087
0.00102573
0.000962774
0.000898438
0.000832056
0.0007638
0.0006987
0.000641543
0.000592231
0.000554303
0.000530886
0.00052283
0.000523317
0.000524093
0.000519865
0.000508038
0.000490932
0.000220576
0.000580968
0.000845973
0.00101421
0.00112246
0.00120009
0.00126062
0.00130826
0.00134424
0.00136884
0.00138199
0.0013837
0.00137452
0.001355
0.00132582
0.00128773
0.00124159
0.00118846
0.00112983
0.00106793
0.0010033
0.000936574
0.00086783
0.000797659
0.000730658
0.000671421
0.000618577
0.000575049
0.000545821
0.000534364
0.000534076
0.000534886
0.00053078
0.000519529
0.000505846
0.000220511
0.000579363
0.000845385
0.0010166
0.00112626
0.00120562
0.00126821
0.00131822
0.00135692
0.00138456
0.00140101
0.00140614
0.00140053
0.00138446
0.00135855
0.00132341
0.00127978
0.00122855
0.00117087
0.00110857
0.00104269
0.000973609
0.000901763
0.000828426
0.000758518
0.000697015
0.00064224
0.000595825
0.000562708
0.000548088
0.000546408
0.000546948
0.000542896
0.000531828
0.000516968
0.000221694
0.000579116
0.000846912
0.00102002
0.00113185
0.00121337
0.00127822
0.00133067
0.00137199
0.00140241
0.00142174
0.00142969
0.00142672
0.00141326
0.00138978
0.00135692
0.00131534
0.0012658
0.00120919
0.00114691
0.00108037
0.00100945
0.000934236
0.000856482
0.000782259
0.000717128
0.000660055
0.000612241
0.000577949
0.000562327
0.00055993
0.000559938
0.000555205
0.000542596
0.000522705
0.00022352
0.00057918
0.000847312
0.00102228
0.00113629
0.00121987
0.00128683
0.00134163
0.00138559
0.0014189
0.00144127
0.00145221
0.00145193
0.00144136
0.00142022
0.0013895
0.0013499
0.00130214
0.00124694
0.00118535
0.00111899
0.00104747
0.000970602
0.000889789
0.000811093
0.000740842
0.000679559
0.000628838
0.000592771
0.000576306
0.000573498
0.000572991
0.000567366
0.000553512
0.00053237
0.000229303
0.000583986
0.000852336
0.0010279
0.00114307
0.00122838
0.00129738
0.00135448
0.00140104
0.00143724
0.00146263
0.00147648
0.00147872
0.00147051
0.00145132
0.00142223
0.00138407
0.00133752
0.00128329
0.00122229
0.00115582
0.00108381
0.00100593
0.000923053
0.000840392
0.000765515
0.000700478
0.000646713
0.000608477
0.000590847
0.000587563
0.000586749
0.000580643
0.000566058
0.00054336
0.000236883
0.000590559
0.000859004
0.00103447
0.00114987
0.0012361
0.00130636
0.00136498
0.00141344
0.00145212
0.00148078
0.00149868
0.00150526
0.00150033
0.00148362
0.00145636
0.00141992
0.00137477
0.00132141
0.00126071
0.00119391
0.00112118
0.00104233
0.000958289
0.000871592
0.00079009
0.000720613
0.000663833
0.000623465
0.000604952
0.000601394
0.000600299
0.00059365
0.000577861
0.000551614
0.000245274
0.000598486
0.000866872
0.00104189
0.00115724
0.00124399
0.00131503
0.00137457
0.00142411
0.00146416
0.00149472
0.00151546
0.00152617
0.00152652
0.00151665
0.00149423
0.00145988
0.00141591
0.00136313
0.00130266
0.0012355
0.00116194
0.00108185
0.000995579
0.00090483
0.000817575
0.000743108
0.000682344
0.000639326
0.000619738
0.000615974
0.000614684
0.000607508
0.000590411
0.000559771
0.000253339
0.000606161
0.000873724
0.00104761
0.00116271
0.00125005
0.0013221
0.00138291
0.0014339
0.0014756
0.00150811
0.00153129
0.00154546
0.0015506
0.00154633
0.00153114
0.00150369
0.00146293
0.00140989
0.0013485
0.00127967
0.00120437
0.00112209
0.00103267
0.000937567
0.000844751
0.000765105
0.00070025
0.000654649
0.000634055
0.000630111
0.000628662
0.000620888
0.000601777
0.000563417
0.000261873
0.000614914
0.000881959
0.00105418
0.00116839
0.00125563
0.00132807
0.00138949
0.00144127
0.00148393
0.00151776
0.00154297
0.00155995
0.0015687
0.00156869
0.00155991
0.00153981
0.00150766
0.00146183
0.00140164
0.00132924
0.00124984
0.00116314
0.00106926
0.000969236
0.000870759
0.000785858
0.000717137
0.000669649
0.000648854
0.00064504
0.000643155
0.000634201
0.000611944
0.000563565
0.000271202
0.000624248
0.000889911
0.00105985
0.00117293
0.00125995
0.0013327
0.00139477
0.00144739
0.00149096
0.00152571
0.00155149
0.00156858
0.00157737
0.00157808
0.00157113
0.00155492
0.00152901
0.00149195
0.00144229
0.00137903
0.00130084
0.00120849
0.00110824
0.00100077
0.000894772
0.0008039
0.000731642
0.000683055
0.000662648
0.00065934
0.000657121
0.000646791
0.000620599
0.000560359
0.000280313
0.000632686
0.000896702
0.00106449
0.0011764
0.00126304
0.00133593
0.00139846
0.00145175
0.00149615
0.00153164
0.00155818
0.00157626
0.00158637
0.00158869
0.00158347
0.0015696
0.00154675
0.00151387
0.00146992
0.00141426
0.00134477
0.00125877
0.00115438
0.00103777
0.00092173
0.000822187
0.000744675
0.00069509
0.000675776
0.000673007
0.000670083
0.000657903
0.000627294
0.000556662
0.000287951
0.000640248
0.000902427
0.00106769
0.00117817
0.00126405
0.00133666
0.00139966
0.00145382
0.00149932
0.00153619
0.0015642
0.00158367
0.00159495
0.00159825
0.00159393
0.00158136
0.00156049
0.00153063
0.00149107
0.00144142
0.0013795
0.00130232
0.00120587
0.00108814
0.000962337
0.000851681
0.00076352
0.000708173
0.000688506
0.000686743
0.000683443
0.000669487
0.000634894
0.000557972
0.000295629
0.000647007
0.000907214
0.00107011
0.00117889
0.00126409
0.00133661
0.00139959
0.00145401
0.00150058
0.00153892
0.00156898
0.00159039
0.00160355
0.00160859
0.00160566
0.00159433
0.0015746
0.00154612
0.00150871
0.00146242
0.00140583
0.00133668
0.00125115
0.00114478
0.0010209
0.000899582
0.000796727
0.000727722
0.000701222
0.000697882
0.000694291
0.000679537
0.000644135
0.000570106
0.000303066
0.000653164
0.000911159
0.00107175
0.00117924
0.0012642
0.00133666
0.00139975
0.00145442
0.00150061
0.00153915
0.0015698
0.00159343
0.00160855
0.00161537
0.00161394
0.00160403
0.00158546
0.00155797
0.00152157
0.00147648
0.00142202
0.0013571
0.00127937
0.00118528
0.00107515
0.000956497
0.000841658
0.000757984
0.000720338
0.00071268
0.000707966
0.00069253
0.000655502
0.000573497
0.000311226
0.000659816
0.000915016
0.00107286
0.0011791
0.00126273
0.00133445
0.00139737
0.00145247
0.00149989
0.00153925
0.00157077
0.00159496
0.00161184
0.00162031
0.00162031
0.00161203
0.0015944
0.0015675
0.00153125
0.00148564
0.00143016
0.00136421
0.00128667
0.00119592
0.0010932
0.00098265
0.00086871
0.000782111
0.000739392
0.000727605
0.000720442
0.000702949
0.000661123
0.000564188
0.000318634
0.000665375
0.00091782
0.00107294
0.00117736
0.00125985
0.00133079
0.00139317
0.00144816
0.00149612
0.0015369
0.00156988
0.00159488
0.0016131
0.00162434
0.00162661
0.0016201
0.00160396
0.00157818
0.0015427
0.00149709
0.00144064
0.00137245
0.00129132
0.00119665
0.00109211
0.000983312
0.000875156
0.000795455
0.000756414
0.000743378
0.000733293
0.000712138
0.000662359
0.000547471
0.000325248
0.000669917
0.000919268
0.00107231
0.00117496
0.00125624
0.00132631
0.00138811
0.00144279
0.00149079
0.00153218
0.00156673
0.00159416
0.001614
0.00162655
0.00163069
0.00162596
0.00161163
0.0015875
0.00155362
0.00150941
0.00145435
0.00138738
0.00130661
0.0012117
0.00110622
0.000992751
0.000882012
0.000803407
0.000768832
0.000756816
0.000744763
0.000720519
0.000665929
0.000547255
0.000331029
0.000673026
0.000919426
0.00107
0.00117104
0.00125114
0.00132023
0.00138121
0.00143532
0.00148319
0.00152502
0.00156069
0.00159002
0.0016123
0.00162657
0.00163389
0.00163194
0.00162005
0.0015979
0.00156556
0.0015226
0.00146935
0.00140595
0.00133154
0.00124548
0.0011493
0.0010395
0.000920971
0.000824508
0.000781337
0.000767892
0.00075496
0.000729135
0.000672251
0.000553888
0.000336208
0.000675401
0.000919063
0.00106735
0.0011669
0.00124586
0.00131391
0.00137394
0.00142728
0.00147469
0.00151655
0.00155298
0.00158379
0.00160829
0.00162546
0.00163416
0.00163507
0.00162601
0.00160583
0.00157463
0.00153157
0.00147722
0.00141262
0.00133823
0.00125619
0.00116834
0.00107063
0.000963113
0.000862389
0.000803862
0.000783234
0.00076717
0.000739164
0.000679122
0.000553409
0.00034004
0.000675907
0.000917082
0.00106338
0.00116152
0.00123932
0.0013063
0.00136537
0.00141783
0.00146461
0.00150634
0.00154338
0.0015756
0.00160218
0.00162188
0.00163336
0.00163651
0.00163107
0.00161417
0.00158497
0.00154209
0.00148552
0.00141615
0.00133524
0.0012456
0.00115368
0.00105993
0.000964011
0.000878644
0.000821618
0.000796286
0.000776709
0.000745555
0.000678565
0.000533331
0.000341922
0.00067585
0.000914421
0.00105898
0.00115585
0.00123256
0.00129849
0.00135639
0.00140761
0.00145325
0.00149423
0.00153134
0.00156462
0.00159321
0.00161571
0.00163074
0.00163723
0.001635
0.00162288
0.001598
0.00155906
0.00150504
0.00143543
0.00135038
0.00125287
0.00115147
0.00105106
0.000958144
0.000882612
0.000835958
0.000810531
0.000787853
0.000752894
0.000679111
0.000528529
0.000343004
0.000673965
0.000910325
0.00105342
0.0011492
0.00122499
0.00128999
0.00134682
0.00139676
0.00144104
0.00148088
0.00151751
0.00155131
0.00158147
0.00160644
0.00162457
0.00163441
0.00163483
0.00162664
0.00160817
0.00157612
0.00152984
0.00146823
0.00138906
0.0012933
0.00118435
0.00106724
0.000961604
0.00088629
0.000843754
0.000820917
0.000796646
0.00075904
0.000682956
0.000537473
0.000344124
0.000671787
0.00090604
0.00104786
0.00114276
0.00121781
0.00128195
0.00133763
0.00138608
0.00142859
0.00146667
0.00150209
0.00153568
0.00156681
0.00159384
0.00161485
0.00162819
0.00163262
0.00162727
0.0016101
0.001581
0.00153907
0.00148465
0.0014178
0.00133826
0.00124448
0.00113186
0.00100925
0.000910124
0.000855645
0.000830952
0.000807084
0.000769704
0.000695232
0.000554649
0.000344316
0.000668554
0.000900738
0.0010414
0.0011356
0.00121008
0.00127354
0.00132824
0.00137529
0.00141597
0.00145195
0.00148553
0.00151813
0.00154953
0.0015781
0.00160162
0.0016181
0.00162604
0.00162382
0.00160917
0.00158131
0.00153978
0.00148578
0.00142064
0.00134637
0.00126239
0.00116402
0.00105298
0.000949838
0.000881081
0.00084502
0.000817045
0.000777953
0.000700332
0.000549758
0.000342824
0.000664155
0.000894571
0.0010345
0.00112823
0.00120228
0.0012652
0.00131907
0.00136484
0.00140365
0.00143726
0.00146838
0.00149908
0.00152993
0.00155956
0.00158563
0.00160578
0.00161816
0.00162042
0.00161042
0.0015847
0.001543
0.00148628
0.00141736
0.00134004
0.00125489
0.00116084
0.00106129
0.000970925
0.000902878
0.000860235
0.000827564
0.000785329
0.000702583
0.000538731
0.000340814
0.000659233
0.000887803
0.00102707
0.00112053
0.00119446
0.00125713
0.00131045
0.00135519
0.00139241
0.00142382
0.00145226
0.00148021
0.00150908
0.0015385
0.00156632
0.00158999
0.00160743
0.0016158
0.00161275
0.00159692
0.00156496
0.00151474
0.00144705
0.0013648
0.00126867
0.00116534
0.0010646
0.000978096
0.000916867
0.00087505
0.000840086
0.000794135
0.000705791
0.000542656
0.000340127
0.00065396
0.000880568
0.00101948
0.00111294
0.00118693
0.00124953
0.00130242
0.0013462
0.00138176
0.00141068
0.00143589
0.0014605
0.00148645
0.00151407
0.00154219
0.00156805
0.00158925
0.0016028
0.00160669
0.00159942
0.00157899
0.00154498
0.001497
0.0014321
0.001344
0.00123064
0.00110814
0.00100635
0.000934556
0.00088725
0.00085005
0.000804339
0.00072109
0.000579615
0.000339985
0.00064843
0.000873219
0.00101176
0.00110524
0.0011796
0.00124248
0.00129532
0.00133845
0.00137246
0.0013987
0.00142003
0.00144011
0.00146187
0.00148664
0.00151332
0.00153952
0.00156204
0.00157746
0.00158403
0.0015811
0.00156813
0.00154525
0.00151226
0.00146659
0.00140049
0.00130576
0.00118527
0.00106461
0.000971914
0.000911846
0.000868177
0.000819556
0.000735945
0.000585486
0.000337723
0.00064132
0.000864965
0.00100351
0.00109711
0.00117199
0.00123556
0.00128883
0.00133186
0.00136503
0.00138952
0.00140783
0.00142366
0.00144034
0.00146034
0.00148399
0.00150958
0.00153272
0.0015487
0.0015549
0.00155065
0.00153659
0.00151489
0.0014875
0.00145269
0.00140089
0.00132259
0.0012216
0.0011076
0.0010084
0.000937972
0.000886662
0.000831239
0.000737029
0.00056648
0.000332124
0.000633112
0.000856178
0.000994855
0.00108861
0.00116405
0.0012287
0.00128303
0.00132672
0.00135971
0.00138274
0.00139814
0.00140929
0.00142052
0.00143534
0.00145558
0.00148022
0.00150506
0.00152372
0.00153154
0.00152615
0.00150813
0.00148008
0.0014461
0.0014084
0.00136458
0.00130634
0.0012217
0.00112637
0.00103337
0.000960464
0.000903822
0.000839959
0.000731106
0.000528737
0.00032331
0.000624418
0.000847186
0.000986048
0.00108004
0.001156
0.00122161
0.00127736
0.00132234
0.00135619
0.0013792
0.00139295
0.00140056
0.00140635
0.00141491
0.00142983
0.00145231
0.00147954
0.00150412
0.00151883
0.00151837
0.00150121
0.00146945
0.00142801
0.00137881
0.00132472
0.00126726
0.00120432
0.00112786
0.00104882
0.000977996
0.00091787
0.000849209
0.000731275
0.000521653
0.000314946
0.000617265
0.0008391
0.000977809
0.00107207
0.00114839
0.0012149
0.00127211
0.00131858
0.00135368
0.00137743
0.00139082
0.00139633
0.00139759
0.00139936
0.00140719
0.00142522
0.00145349
0.00148632
0.00151495
0.00152995
0.00152494
0.00149957
0.00145472
0.0013941
0.00132788
0.00126549
0.00120132
0.00113075
0.00106016
0.000992386
0.000931915
0.000860519
0.000734822
0.000532274
0.000312512
0.000612816
0.00083284
0.000970831
0.00106508
0.00114164
0.00120888
0.0012672
0.00131531
0.00135203
0.00137704
0.00139066
0.00139464
0.00139251
0.0013881
0.00138722
0.00139576
0.00141964
0.00145643
0.00149949
0.00153832
0.00156175
0.00156272
0.00153942
0.00148364
0.00140056
0.00130203
0.00121453
0.00114308
0.00107748
0.00101233
0.000949898
0.000879795
0.000765073
0.000610832
0.000316393
0.000611203
0.000828139
0.000964959
0.00105909
0.00113582
0.0012036
0.00126285
0.00131246
0.00135052
0.00137656
0.0013907
0.00139308
0.0013876
0.00137681
0.00136662
0.00136518
0.00137868
0.00141391
0.0014662
0.00152596
0.00157835
0.00161137
0.00161909
0.00159739
0.00153411
0.00143637
0.00131879
0.00120769
0.0011163
0.00103988
0.000972948
0.000904846
0.000807648
0.000687716
0.00033182
0.000615485
0.00082654
0.000961284
0.00105489
0.00113151
0.00119943
0.00125918
0.00130961
0.00134891
0.00137586
0.0013901
0.00139267
0.00138411
0.00136571
0.0013445
0.00132831
0.00132995
0.00135692
0.00141429
0.00148924
0.00156472
0.00162518
0.00166554
0.00167443
0.00164806
0.00157376
0.00145808
0.00131892
0.00118964
0.00108679
0.00100854
0.000933342
0.000833244
0.000692941
0.000345133
0.000615883
0.000823307
0.000956487
0.00104958
0.00112624
0.00119428
0.00125464
0.00130613
0.00134707
0.0013757
0.00139056
0.00139273
0.00138375
0.00136291
0.00133053
0.00129481
0.00127135
0.00128165
0.00133216
0.0014179
0.00151722
0.00160671
0.00166782
0.00169204
0.00167403
0.00161022
0.00150265
0.00136777
0.00123485
0.00112723
0.00104203
0.000954928
0.000831423
0.000627487
0.000347191
0.000614326
0.000818615
0.000950773
0.00104337
0.00111983
0.00118798
0.00124915
0.0013021
0.00134507
0.001376
0.00139391
0.00139775
0.00138759
0.00136367
0.00132801
0.00128466
0.00124399
0.00122145
0.00125053
0.00133734
0.00145346
0.0015698
0.0016535
0.00168507
0.00166945
0.00160659
0.00150001
0.00137001
0.00124769
0.00114587
0.00105704
0.000953436
0.000794803
0.000519019
0.000339081
0.000604817
0.000810583
0.000942852
0.0010352
0.00111152
0.00117973
0.00124156
0.00129584
0.00134112
0.00137591
0.0013989
0.00141017
0.00141016
0.00139698
0.00136717
0.00131906
0.00125863
0.00120476
0.00118845
0.00121826
0.00131176
0.00143372
0.00153502
0.00159081
0.00159749
0.00155362
0.00146973
0.00136401
0.0012552
0.00115956
0.00106745
0.000950523
0.000757605
0.000465762
0.000326157
0.000596557
0.000803439
0.000935498
0.0010275
0.00110367
0.00117192
0.00123435
0.00128974
0.00133661
0.00137348
0.00139893
0.00141402
0.00142014
0.00141739
0.00140291
0.00137346
0.00132324
0.00125572
0.00119908
0.00118748
0.00123065
0.00131828
0.00141735
0.00149517
0.00152547
0.0015093
0.00144978
0.00136355
0.00126878
0.00117561
0.00108024
0.000955778
0.000756892
0.000461091
0.000309935
0.000589104
0.000796964
0.000928479
0.00102002
0.00109597
0.001164
0.00122649
0.00128226
0.00133007
0.00136878
0.00139715
0.00141434
0.00142324
0.00142732
0.00142914
0.00142413
0.00139922
0.00134626
0.00126879
0.00119981
0.00118697
0.00122363
0.00129388
0.0013739
0.00143427
0.00145472
0.00142798
0.00136004
0.00127094
0.00117866
0.00108463
0.000962249
0.000760301
0.000467691
0.000304074
0.000588087
0.000793108
0.000923225
0.0010142
0.00109005
0.00115805
0.00122034
0.00127598
0.00132362
0.00136231
0.00139147
0.00141065
0.00142161
0.00142783
0.00143288
0.00144074
0.0014529
0.00145122
0.00141418
0.00134642
0.00127677
0.0012354
0.00124065
0.0012674
0.00130923
0.00134411
0.0013528
0.00132716
0.00126816
0.00118905
0.00110281
0.00098964
0.000795998
0.000547216
0.000305675
0.000588581
0.00079219
0.000919649
0.00100986
0.00108572
0.0011538
0.00121589
0.00127131
0.00131826
0.00135538
0.00138218
0.00139906
0.00140706
0.00141082
0.00141665
0.00143173
0.00145942
0.00149085
0.0015133
0.00150414
0.00146598
0.00140317
0.00133134
0.00129493
0.0013043
0.00131387
0.00131808
0.00130757
0.00126785
0.00120561
0.00112771
0.00102424
0.000857875
0.000663766
0.000324795
0.000598395
0.000793165
0.000917583
0.00100675
0.00108255
0.00115075
0.00121275
0.00126806
0.00131452
0.00135023
0.001374
0.00138608
0.00138756
0.00138217
0.00137744
0.00138492
0.00141906
0.00147938
0.00154607
0.00159477
0.00160954
0.00158995
0.00153373
0.00145967
0.00138348
0.00133936
0.00132366
0.0013082
0.00126973
0.00121157
0.00114087
0.00105393
0.000916607
0.000735507
0.00034981
0.000605911
0.000793441
0.000914381
0.00100258
0.00107838
0.00114702
0.00120934
0.00126497
0.00131131
0.00134586
0.00136699
0.00137308
0.00136582
0.00134834
0.00133071
0.00132439
0.00134749
0.00141847
0.00151761
0.0016098
0.00167457
0.00170296
0.00169132
0.00164196
0.00156594
0.00148086
0.00140305
0.00134624
0.00129458
0.00123273
0.00116384
0.00107865
0.000938714
0.000736294
0.000363466
0.000607056
0.000789536
0.000908223
0.000996032
0.00107221
0.00114144
0.00120453
0.00126132
0.00130901
0.00134442
0.00136567
0.00137071
0.00135985
0.00133421
0.00129585
0.00126259
0.00126527
0.0013349
0.00144618
0.00156619
0.00166167
0.00171148
0.00172192
0.00169589
0.00163781
0.00155722
0.00146887
0.00138944
0.00131923
0.00124905
0.00117552
0.00108018
0.000928036
0.000634225
0.000364161
0.0006004
0.000781743
0.000900358
0.000988118
0.00106457
0.00113462
0.00119906
0.00125772
0.00130837
0.00134812
0.00137355
0.00138052
0.0013681
0.00133632
0.00128967
0.0012404
0.00121242
0.00122362
0.00130926
0.00144158
0.00157463
0.00166808
0.00169898
0.0016878
0.0016355
0.00155697
0.00147381
0.00139481
0.00132259
0.0012526
0.00117518
0.00106777
0.00086662
0.000509559
0.000351207
0.000586411
0.000769243
0.000888254
0.000976261
0.00105319
0.00112416
0.00119011
0.00125102
0.00130524
0.00135042
0.00138375
0.00140042
0.00139886
0.00137594
0.00133182
0.00127265
0.00121856
0.00120047
0.00122696
0.00130777
0.00141852
0.0015207
0.00158592
0.00160702
0.00159152
0.00154087
0.00146976
0.00139497
0.00132399
0.00125172
0.00116657
0.00103971
0.000809924
0.000450343
0.000329588
0.000570825
0.000757206
0.000877559
0.000965944
0.00104322
0.0011149
0.00118204
0.00124478
0.00130185
0.00135149
0.00139213
0.00142034
0.00143133
0.00142343
0.00139246
0.00133732
0.00126652
0.00120756
0.00119278
0.00122678
0.00130655
0.0013948
0.00146325
0.00150531
0.00151862
0.00150087
0.00145453
0.00139194
0.00132206
0.00124823
0.00116319
0.00103669
0.000806068
0.000446704
0.000306038
0.000554896
0.00074381
0.000865321
0.000954247
0.00103209
0.00110472
0.00117326
0.00123799
0.00129789
0.00135144
0.00139807
0.00143555
0.0014621
0.00147348
0.00146628
0.00143263
0.00136845
0.0012819
0.00120886
0.00118502
0.00121573
0.0012855
0.00136009
0.00141796
0.00144864
0.00144916
0.00142351
0.00137581
0.00131755
0.00124876
0.00116448
0.0010402
0.000811584
0.000467439
0.000287333
0.00054262
0.000733301
0.000855621
0.000944893
0.00102312
0.00109644
0.00116603
0.00123224
0.00129397
0.00135021
0.00140033
0.00144343
0.00147898
0.00150612
0.00152094
0.00151705
0.00148578
0.00142211
0.0013301
0.00123645
0.00119224
0.001198
0.00124269
0.00130821
0.00136851
0.00140123
0.00139992
0.00137337
0.0013202
0.00125366
0.00117466
0.00105962
0.000846501
0.000542006
0.000276049
0.000534244
0.000724825
0.000847183
0.000936675
0.00101538
0.00108954
0.00116036
0.00122813
0.00129143
0.00134926
0.00140106
0.00144768
0.00148854
0.00152397
0.00155241
0.00156961
0.0015692
0.00154516
0.00149044
0.00141021
0.00131783
0.00124
0.00121286
0.00122466
0.00126457
0.00131751
0.00135233
0.00135279
0.00132227
0.00126633
0.00119391
0.00108906
0.000898994
0.00063589
0.000273375
0.00052998
0.000719204
0.000840809
0.000930071
0.00100898
0.0010838
0.00115577
0.00122475
0.00128928
0.00134842
0.00140163
0.0014489
0.00149125
0.00152973
0.00156378
0.00159142
0.00160915
0.00161142
0.00159465
0.00155337
0.00149196
0.00140955
0.001314
0.00125234
0.00124443
0.00125964
0.00129321
0.00131768
0.00131364
0.00127372
0.00120877
0.00111452
0.000948096
0.000712821
0.000276339
0.000528736
0.000714938
0.000835038
0.000923896
0.00100303
0.00107849
0.00115157
0.00122145
0.00128684
0.00134689
0.00140101
0.00144867
0.00149131
0.00153015
0.00156487
0.00159449
0.00161769
0.00163185
0.00163518
0.00162642
0.00159932
0.00154838
0.00147125
0.00138108
0.00129896
0.00126767
0.00127792
0.00129383
0.00129713
0.001273
0.00121953
0.00113685
0.000984708
0.00074133
0.0002839
0.000528804
0.000711677
0.000829994
0.000918203
0.00099734
0.00107322
0.00114707
0.00121748
0.00128332
0.00134375
0.00139807
0.00144582
0.00148786
0.00152532
0.00155807
0.00158612
0.00160969
0.00162831
0.00164023
0.00164493
0.00164032
0.00161843
0.0015712