/*--------------------------------*- C++ -*----------------------------------*\
| =========                 |                                                 |
| \\      /  F ield         | OpenFOAM: The Open Source CFD Toolbox           |
|  \\    /   O peration     | Version:  2.3.x                                 |
|   \\  /    A nd           | Web:      www.OpenFOAM.org                      |
|    \\/     M anipulation  |                                                 |
\*---------------------------------------------------------------------------*/
FoamFile
{
    version     2.0;
    format      ascii;
    class       volScalarField;
    location    "950";
    object      k;
}
// * * * * * * * * * * * * * * * * * * * * * * * * * * * * * * * * * * * * * //

dimensions      [0 2 -2 0 0 0 0];

internalField   nonuniform List<scalar> 
78750
(
0.00010946
0.000292436
0.00036403
0.000395848
0.000418483
0.000444842
0.000473228
0.000499014
0.000521448
0.000540749
0.00055704
0.000570618
0.000581827
0.000591499
0.000597622
0.000614636
0.000630351
0.000639109
0.000642032
0.000641952
0.000639986
0.000635863
0.000630425
0.000623953
0.00061653
0.000607994
0.000598566
0.000587416
0.000575195
0.000561505
0.000545552
0.000526067
0.00050143
0.000441879
0.000178768
6.44216e-05
0.000177639
0.000235457
0.000274127
0.000325975
0.000391936
0.000461852
0.0005319
0.00059462
0.000647688
0.000691469
0.000726814
0.00075387
0.000775849
0.000791309
0.000789895
0.000779744
0.000767043
0.000753962
0.000740402
0.00072667
0.000712931
0.000699141
0.000685457
0.000671942
0.000659095
0.000647338
0.000634139
0.000619336
0.000603614
0.000584943
0.000561835
0.000525629
0.000453763
0.000303698
2.15783e-05
0.000119162
0.000219484
0.000327614
0.000444339
0.000555914
0.000646936
0.00071383
0.000761428
0.000794481
0.000815657
0.000826838
0.000828509
0.000824481
0.000812905
0.000797649
0.000780418
0.000762634
0.000743282
0.000722372
0.00070028
0.000677512
0.000654673
0.000632538
0.000612281
0.000593649
0.000577177
0.000566732
0.000561208
0.000559323
0.000557914
0.000549698
0.000518088
0.000462169
0.000389953
2.82429e-05
0.000211076
0.000390798
0.000549955
0.000664074
0.000734092
0.000779373
0.000808875
0.00082763
0.000838491
0.000843173
0.000842736
0.000837797
0.000827994
0.000813936
0.000795777
0.000774071
0.000747674
0.000717871
0.000685848
0.00065311
0.000620398
0.000588885
0.000559483
0.000531603
0.00050886
0.000493235
0.000484763
0.000484345
0.000488666
0.000499108
0.000505617
0.000495355
0.000460746
0.000408
5.33208e-05
0.000262568
0.000452287
0.000590622
0.000682688
0.000745314
0.00078992
0.0008231
0.000847657
0.000864463
0.00087364
0.000874984
0.00086999
0.000856131
0.000835538
0.000809394
0.000778741
0.000745467
0.000710584
0.0006741
0.000636145
0.000598941
0.000563636
0.000530373
0.000498714
0.000470389
0.000449646
0.000436965
0.00043377
0.000438359
0.000452947
0.000468263
0.00046875
0.000448055
0.000395601
8.79633e-05
0.000330677
0.00052789
0.000660903
0.000745294
0.000801899
0.000842761
0.000871945
0.000891234
0.00090189
0.000904747
0.000900819
0.000889475
0.000871807
0.000848306
0.000819793
0.00078725
0.000751653
0.0007138
0.000674711
0.000635662
0.000597861
0.000562144
0.000528652
0.000498509
0.000472211
0.000448276
0.00042741
0.000415621
0.00041548
0.000424884
0.00044171
0.000446924
0.000428869
0.000367501
0.000103616
0.000344441
0.000534403
0.000665507
0.000749829
0.000806719
0.000848093
0.000879253
0.000902275
0.000917807
0.000925864
0.000926382
0.000919913
0.000905911
0.000884857
0.000857338
0.000824407
0.000787559
0.000747133
0.000704033
0.000660123
0.000617367
0.000576826
0.000539517
0.000507293
0.000479906
0.000454719
0.000430853
0.000411764
0.000403047
0.000406946
0.000420854
0.000426354
0.00040934
0.000350606
0.000113664
0.000360332
0.000554817
0.000689139
0.000775148
0.000833322
0.000876092
0.000908382
0.000931948
0.000947502
0.000955434
0.000956079
0.00094994
0.000937186
0.000918459
0.000894193
0.000864901
0.000831446
0.000794119
0.000752902
0.000708036
0.000660301
0.000610892
0.000562508
0.000521924
0.00049028
0.000464024
0.000439753
0.000416855
0.000402858
0.000400906
0.00040781
0.000411568
0.000396525
0.000348333
0.000115303
0.000362068
0.000556807
0.000691708
0.000779395
0.000839802
0.000884948
0.00091985
0.000946495
0.000965711
0.000977785
0.000982755
0.000980764
0.000971673
0.000955779
0.000933521
0.000905609
0.000873055
0.00083697
0.000797532
0.000754979
0.000709456
0.000660617
0.000608613
0.000557108
0.000512679
0.000476051
0.000445161
0.000420184
0.000403419
0.000396757
0.000399657
0.000401195
0.00038841
0.00035522
0.000118218
0.000368067
0.000568686
0.000709245
0.000801028
0.000863934
0.000910669
0.000946646
0.000974047
0.000993806
0.0010063
0.00101168
0.0010102
0.00100187
0.000986815
0.000965378
0.000938091
0.000905735
0.000869572
0.000829839
0.000786898
0.000740993
0.000692104
0.000640725
0.000588744
0.000541444
0.000501243
0.000465799
0.000434926
0.000410799
0.000398067
0.000396552
0.000396656
0.000388657
0.000373326
0.000126979
0.000381865
0.000584236
0.000724785
0.000816567
0.000880103
0.000927791
0.000964911
0.000993719
0.00101521
0.00102974
0.00103734
0.00103781
0.00103192
0.00101825
0.000997776
0.000971037
0.000938771
0.000902066
0.000861242
0.000816484
0.000767979
0.000715869
0.000660448
0.000605308
0.00055693
0.000514945
0.000476917
0.000443752
0.000417531
0.000401554
0.000397397
0.000397012
0.000391618
0.00038751
0.000132213
0.000393051
0.000602235
0.000746671
0.000839957
0.000904146
0.000952413
0.000990238
0.00101987
0.00104228
0.00105794
0.00106695
0.00106904
0.0010645
0.00105249
0.00103401
0.00100927
0.000978602
0.000942878
0.00090248
0.000857537
0.000808038
0.000754224
0.000697065
0.000638215
0.000583425
0.000536449
0.000494907
0.000458133
0.000428112
0.0004081
0.000401169
0.000400214
0.00039834
0.00040446
0.000142621
0.000412512
0.00062684
0.000771311
0.0008627
0.000925626
0.000973291
0.00101104
0.00104091
0.00106396
0.00108074
0.00109143
0.00109579
0.00109413
0.00108602
0.00107107
0.0010489
0.00101962
0.000984367
0.000943331
0.000896731
0.000844944
0.0007883
0.000727596
0.000664482
0.000605132
0.000554301
0.00050968
0.000470548
0.000438445
0.000416161
0.00040782
0.000406998
0.000407713
0.000417776
0.000151172
0.000430788
0.000652166
0.000798188
0.000888831
0.000950901
0.00099794
0.00103521
0.00106467
0.00108757
0.00110472
0.00111656
0.0011235
0.00112523
0.00112194
0.0011118
0.00109453
0.00106947
0.00103657
0.000995684
0.00094746
0.000893411
0.00083367
0.000769053
0.000700886
0.000635297
0.000577875
0.000526874
0.000482688
0.000447762
0.000424809
0.00041628
0.000415248
0.000415998
0.000425276
0.000164671
0.000455594
0.000682431
0.000826095
0.000913732
0.000973711
0.00101945
0.00105554
0.00108402
0.00110634
0.00112341
0.00113613
0.00114471
0.00114894
0.00114831
0.00114208
0.00112946
0.00110966
0.00108231
0.00104634
0.00100118
0.000946549
0.000883109
0.000813619
0.000740111
0.000669148
0.000606331
0.000549352
0.000499027
0.000459257
0.000434129
0.000425174
0.000424314
0.000426004
0.000440551
0.000181563
0.000484207
0.000715525
0.00085611
0.00094025
0.000997621
0.00104132
0.00107543
0.00110223
0.00112325
0.00113976
0.00115274
0.00116252
0.00116863
0.00117044
0.00116764
0.00115842
0.00114244
0.00111889
0.00108687
0.00104601
0.000995785
0.000935491
0.000864622
0.000784717
0.000706913
0.000638438
0.000576289
0.000520685
0.000475683
0.00044679
0.000435899
0.000435019
0.000438546
0.000457251
0.000203086
0.000515395
0.000747157
0.000882438
0.000961984
0.00101619
0.00105706
0.00108869
0.00111323
0.00113254
0.00114796
0.00116139
0.00117317
0.00118211
0.00118708
0.00118719
0.00118209
0.00116977
0.00114949
0.00112043
0.00108238
0.00103497
0.000977573
0.000909303
0.000829895
0.000746158
0.000668121
0.000599143
0.000539214
0.000490757
0.000459869
0.000448708
0.000448234
0.000451203
0.000460672
0.000224764
0.000544749
0.00077455
0.00090468
0.000979911
0.00103098
0.00106908
0.00109785
0.00111939
0.00113478
0.00114907
0.00116296
0.00117669
0.00119017
0.00120016
0.00120457
0.00120314
0.00119465
0.00117768
0.00115154
0.00111615
0.00107122
0.00101604
0.00094951
0.000870963
0.00078503
0.000697907
0.000613687
0.000547272
0.000500587
0.000473028
0.00046196
0.000459838
0.00045922
0.0004585
0.000242331
0.000565912
0.000793689
0.000920221
0.000992413
0.00104079
0.00107616
0.00110194
0.00112005
0.00113535
0.00114918
0.00116337
0.00117795
0.00119149
0.00120401
0.00121377
0.00121774
0.00121406
0.00120169
0.00118003
0.00114917
0.00110904
0.00105898
0.000997893
0.000926159
0.000846318
0.000757066
0.00065952
0.000568979
0.000508801
0.000482287
0.000474248
0.000471603
0.00046828
0.000465379
0.000253989
0.000579778
0.00080669
0.000931925
0.00100272
0.00104933
0.00108243
0.00110536
0.00111987
0.0011312
0.00114164
0.00115467
0.00117084
0.00118801
0.00120308
0.00121505
0.00122303
0.0012255
0.00121851
0.00120152
0.00117516
0.00113985
0.00109576
0.00104269
0.000981132
0.000912031
0.00083179
0.000737404
0.000635327
0.000547089
0.000498519
0.000484793
0.000483078
0.00048109
0.000478621
0.000261819
0.000589753
0.000816454
0.000941253
0.00101201
0.00105798
0.00108948
0.00110974
0.00112095
0.00112668
0.00113137
0.00114016
0.00115471
0.00117356
0.00119348
0.00121108
0.00122365
0.00122927
0.00122776
0.0012155
0.00119306
0.00116076
0.00111927
0.0010691
0.00101076
0.000944447
0.000867577
0.000778933
0.000682213
0.000590975
0.000530147
0.000505507
0.000497438
0.000490174
0.00047337
0.000267927
0.000597269
0.000824409
0.000949867
0.00102177
0.00106865
0.00109957
0.00111769
0.00112538
0.00112604
0.00112446
0.00112795
0.00113789
0.00115505
0.00117654
0.00119838
0.00121661
0.00122831
0.0012316
0.00122651
0.00121027
0.00118212
0.00114315
0.00109335
0.00103281
0.000961185
0.000876565
0.000782022
0.000687039
0.000607112
0.000554193
0.000527065
0.000512463
0.000496417
0.00046397
0.000273141
0.000602283
0.000829847
0.000956586
0.00103025
0.001079
0.00111108
0.00112805
0.00113128
0.00112586
0.00111863
0.00111296
0.00111721
0.00113079
0.00115171
0.00117656
0.00119989
0.00121798
0.00122839
0.00122933
0.00122098
0.00120279
0.00117313
0.00113139
0.00107751
0.00100963
0.000923301
0.000818705
0.000709764
0.000620674
0.000567219
0.000540332
0.000523806
0.000503379
0.000471105
0.000276413
0.000604106
0.00083226
0.000961056
0.00103728
0.0010889
0.00112418
0.00114441
0.00114942
0.00114097
0.00112375
0.00110783
0.00109822
0.00110273
0.0011195
0.00114423
0.00117103
0.00119469
0.001212
0.00122094
0.00122017
0.00120908
0.00118809
0.0011574
0.00111613
0.00106119
0.000987081
0.000890222
0.0007757
0.000666739
0.000593162
0.000556516
0.000537446
0.00051838
0.00049609
0.000279517
0.000605118
0.000832633
0.000963998
0.00104267
0.0010968
0.00113473
0.00115788
0.00116595
0.0011605
0.00114276
0.00111698
0.00109355
0.00108058
0.00108368
0.00110413
0.00113113
0.00115865
0.00118172
0.00119718
0.00120322
0.00119909
0.0011845
0.00115995
0.00112507
0.00107716
0.00101213
0.000926448
0.000820988
0.000712133
0.000628071
0.000580593
0.000554776
0.000530752
0.000496449
0.000281621
0.000605413
0.000833612
0.00096566
0.00104697
0.00110415
0.00114539
0.00117207
0.00118369
0.00118184
0.00116728
0.00114184
0.00110905
0.00107814
0.00106298
0.001063
0.00108439
0.00111253
0.00114034
0.00116287
0.00117676
0.00118022
0.00117299
0.00115444
0.00112407
0.00107904
0.00101589
0.000933053
0.000834028
0.000734088
0.000653079
0.000601888
0.00057055
0.000539885
0.000495892
0.000281991
0.000604254
0.000832426
0.000965733
0.00104992
0.00111011
0.00115465
0.00118498
0.00120107
0.00120296
0.0011921
0.00116983
0.00113803
0.00109984
0.00106297
0.00104343
0.00104057
0.00106038
0.00108856
0.0011162
0.00113825
0.00115136
0.00115426
0.0011467
0.00112638
0.00109108
0.00103638
0.000959008
0.000861976
0.000762096
0.000678805
0.000623072
0.000587504
0.000552649
0.000504391
0.000280987
0.000599805
0.00082864
0.000965527
0.00105192
0.0011152
0.00116327
0.00119757
0.0012181
0.00122431
0.00121789
0.00119949
0.00117053
0.00113287
0.00108948
0.00104699
0.00101998
0.00101352
0.00103052
0.00105774
0.00108502
0.00110641
0.00111899
0.00112176
0.0011136
0.00108918
0.00104461
0.000979151
0.000891325
0.000793976
0.000707209
0.000646179
0.000605378
0.000565085
0.000509322
0.000278423
0.000594889
0.000823725
0.00096287
0.00105244
0.00111915
0.00117083
0.00120918
0.00123432
0.00124522
0.00124357
0.00122965
0.00120457
0.00116965
0.00112665
0.00107848
0.00103129
0.000996263
0.00098253
0.000994303
0.00102155
0.00104859
0.00106945
0.00108132
0.00108165
0.00106717
0.00103412
0.000977717
0.000901122
0.000814028
0.000731406
0.000668843
0.000623554
0.000576602
0.000508185
0.000275735
0.00058894
0.000818248
0.000959984
0.00105235
0.00112241
0.00117765
0.00121997
0.00124954
0.00126612
0.00126919
0.00126014
0.00123961
0.00120861
0.0011684
0.0011207
0.00106839
0.00101681
0.000974251
0.000951922
0.000957675
0.000983755
0.00101225
0.00103509
0.00104715
0.00104317
0.0010182
0.000970421
0.000903118
0.000825497
0.000749355
0.00068774
0.000639768
0.000586679
0.00051084
0.000270215
0.000580835
0.000810958
0.000955965
0.00105205
0.00112511
0.00118391
0.0012303
0.0012644
0.00128589
0.001294
0.00129017
0.00127453
0.00124791
0.00121128
0.00116587
0.00111351
0.00105742
0.00100147
0.000953104
0.000924503
0.000923216
0.000947481
0.000979212
0.00100569
0.00101758
0.00100815
0.000971199
0.000914292
0.000842818
0.000769473
0.000707512
0.000658212
0.000604017
0.000532251
0.000265116
0.000573623
0.000804426
0.000952198
0.00105126
0.00112783
0.0011902
0.00124051
0.00127899
0.00130526
0.0013187
0.00131978
0.00130899
0.00128692
0.00125429
0.00121202
0.00116133
0.00110415
0.00104341
0.000982546
0.00092907
0.000894589
0.000888382
0.000912496
0.000949233
0.000978184
0.000986842
0.000969189
0.000922599
0.000858758
0.000788282
0.000726824
0.000676333
0.000619104
0.000538056
0.000260061
0.000565919
0.000797969
0.000949775
0.00105287
0.00113259
0.0011984
0.00125239
0.0012948
0.00132535
0.00134364
0.00134918
0.00134282
0.00132498
0.00129625
0.00125731
0.00120907
0.00115279
0.00109064
0.00102442
0.00095823
0.000900775
0.000865786
0.000862693
0.000885243
0.000922951
0.000949334
0.000950246
0.000921719
0.000868483
0.000803747
0.000744608
0.000693476
0.000632198
0.000538995
0.000257694
0.000560139
0.000792229
0.000948134
0.00105539
0.00113905
0.00120867
0.0012664
0.00131262
0.00134713
0.00136955
0.00137934
0.00137685
0.00136261
0.00133711
0.00130103
0.00125513
0.00120041
0.00113837
0.00107062
0.000999051
0.000929233
0.000873445
0.000845264
0.000846221
0.000869181
0.000901718
0.000919265
0.000911405
0.000872509
0.000816241
0.000760266
0.000708552
0.000642385
0.000543465
0.000257574
0.000557415
0.000789833
0.000947786
0.00105926
0.00114711
0.00122066
0.00128213
0.00133224
0.00137071
0.00139713
0.00141096
0.00141206
0.00140117
0.00137831
0.00134434
0.00129999
0.00124614
0.00118401
0.0011154
0.00104149
0.000966076
0.000897336
0.000849655
0.000831561
0.000837806
0.00086143
0.00088696
0.000893428
0.000872068
0.000827231
0.000775973
0.000725986
0.000660638
0.000567385
0.000261629
0.000557415
0.000790675
0.000951727
0.00106573
0.00115713
0.0012352
0.00130109
0.00135517
0.00139737
0.00142756
0.00144515
0.00144965
0.00144172
0.00142131
0.0013891
0.00134578
0.00129219
0.00122932
0.00115897
0.00108172
0.00100031
0.000921692
0.000859985
0.000827548
0.000823191
0.00083771
0.000864287
0.000881472
0.000871869
0.000836541
0.000790541
0.000741681
0.000674649
0.000572273
0.000265246
0.000560782
0.000794021
0.000955113
0.00107071
0.00116528
0.00124775
0.0013187
0.00137821
0.00142581
0.00146088
0.00148283
0.00149115
0.0014867
0.00146933
0.00143913
0.00139689
0.00134374
0.00128065
0.00120878
0.00112789
0.00103941
0.000949611
0.000873728
0.000828366
0.000814111
0.00082371
0.000848029
0.000870367
0.000870878
0.000844147
0.000803376
0.000755987
0.000685456
0.000567089
0.000269678
0.000562902
0.000795958
0.000958339
0.00107597
0.00117341
0.00125908
0.0013334
0.00139707
0.00144986
0.00149111
0.00151997
0.00153529
0.00153642
0.00152381
0.00149607
0.001455
0.00140259
0.00133914
0.0012664
0.00118413
0.00109197
0.000993675
0.000903273
0.000840875
0.000814324
0.000815867
0.000837478
0.000860992
0.000867216
0.000848702
0.00081334
0.000767182
0.000692414
0.000566936
0.000277052
0.000569469
0.000801525
0.00096305
0.00108115
0.0011807
0.00126865
0.00134534
0.00141111
0.00146603
0.00151006
0.00154289
0.00156388
0.00157273
0.00156901
0.00155119
0.00151794
0.00146859
0.00140437
0.00132931
0.00124535
0.00115155
0.00104985
0.000950898
0.000872908
0.000825064
0.000814619
0.000828011
0.000852723
0.00086527
0.000855159
0.000824586
0.000780084
0.000705934
0.000586717
0.00028623
0.000576245
0.000806491
0.000966202
0.00108426
0.00118638
0.00127691
0.00135637
0.0014249
0.00148224
0.00152814
0.00156243
0.00158493
0.00159592
0.00159542
0.00158366
0.00155869
0.00151977
0.00146554
0.00139501
0.0013073
0.00120535
0.00109761
0.000992851
0.000906365
0.000846568
0.000819409
0.000823336
0.000844741
0.000862583
0.00085962
0.000834913
0.00079393
0.000721777
0.000601975
0.000295012
0.000581814
0.000809147
0.000967097
0.00108526
0.00118822
0.00128065
0.00136299
0.00143465
0.00149526
0.00154425
0.00158117
0.00160565
0.00161791
0.00161811
0.00160694
0.00158281
0.00154602
0.00149626
0.00143279
0.00135351
0.00125563
0.00113939
0.00102066
0.000923077
0.00085739
0.000825735
0.000825517
0.000845319
0.000864528
0.000865723
0.000844641
0.00080518
0.000730386
0.000595815
0.000300646
0.000585304
0.00080955
0.000966678
0.0010848
0.00118796
0.00128075
0.00136453
0.0014395
0.00150353
0.00155608
0.00159676
0.00162512
0.0016413
0.00164536
0.00163753
0.00161694
0.00158352
0.00153697
0.00147617
0.00139912
0.0013029
0.00118514
0.00105237
0.000935388
0.000859894
0.000828564
0.000830838
0.000851199
0.00086981
0.00087127
0.000851818
0.00081246
0.000730884
0.000572343
0.000303405
0.000585868
0.00080834
0.000962538
0.00108032
0.00118429
0.00127887
0.00136408
0.00143992
0.00150642
0.00156259
0.00160673
0.00163845
0.001658
0.0016654
0.00166081
0.00164392
0.00161495
0.00157434
0.00152133
0.00145443
0.00137037
0.00126427
0.00113514
0.00099753
0.000885748
0.000832653
0.000832161
0.000854568
0.00087582
0.000878283
0.000859833
0.000819368
0.000732787
0.000571844
0.000305524
0.000585601
0.000804024
0.00095571
0.00107255
0.00117589
0.00127126
0.00135899
0.00143771
0.00150576
0.00156328
0.00161072
0.00164678
0.00167071
0.00168273
0.00168251
0.00167033
0.00164551
0.00160917
0.00156147
0.00150269
0.00143134
0.00134365
0.00123549
0.00111044
0.000978799
0.000877253
0.000843837
0.000856342
0.00087798
0.000882808
0.000867016
0.000828504
0.000745947
0.000596254
0.000308567
0.000584623
0.000799973
0.000949324
0.00106523
0.00116798
0.0012635
0.00135189
0.00143211
0.00150288
0.00156285
0.00161094
0.00164839
0.00167565
0.00169072
0.00169331
0.00168404
0.00166163
0.00162663
0.00157954
0.00152175
0.00145363
0.00137333
0.00128111
0.00117813
0.0010606
0.000946051
0.000876713
0.000865885
0.000882504
0.00089041
0.000876306
0.00083852
0.00075358
0.00060072
0.000310132
0.000582809
0.000794267
0.000940611
0.00105464
0.00115713
0.00125332
0.00134292
0.00142454
0.00149686
0.00155889
0.00160982
0.00164917
0.00167736
0.00169552
0.00170259
0.00169692
0.00167756
0.00164377
0.00159543
0.00153386
0.00146035
0.00137483
0.00127841
0.0011778
0.00107581
0.000978611
0.000912665
0.00089391
0.000901822
0.000903439
0.000885588
0.000843922
0.000751575
0.000579126
0.000309668
0.00057968
0.00078734
0.000930479
0.00104269
0.00114445
0.00124068
0.0013309
0.00141356
0.00148717
0.00155064
0.00160333
0.00164516
0.0016761
0.0016959
0.00170567
0.00170392
0.00168912
0.00165977
0.00161452
0.00155332
0.00147651
0.00138408
0.00127824
0.00117093
0.00107177
0.000988831
0.000937302
0.00091932
0.00091971
0.000914686
0.000892992
0.00084711
0.000744765
0.000551987
0.000306597
0.000574545
0.000778555
0.000918431
0.00102866
0.00112955
0.00122576
0.00131663
0.00140037
0.0014753
0.00154021
0.00159439
0.00163792
0.00167109
0.0016939
0.00170595
0.00170802
0.00170015
0.00167799
0.00164039
0.0015866
0.00151518
0.00142444
0.00131469
0.00119282
0.0010767
0.00099048
0.000944346
0.000932313
0.000933033
0.000925585
0.000901658
0.000853049
0.000745707
0.000551499
0.000305782
0.000570801
0.000770782
0.000907269
0.00101546
0.00111539
0.00121149
0.00130285
0.00138747
0.00146348
0.00152955
0.00158493
0.00162979
0.00166449
0.00168921
0.00170396
0.00170861
0.00170272
0.0016858
0.00165714
0.00161511
0.00155764
0.00148251
0.00138946
0.00127714
0.00114987
0.00103545
0.000968717
0.000947722
0.000944894
0.000934701
0.000909271
0.000860621
0.000755111
0.000578926
0.000306569
0.000568029
0.00076321
0.000895716
0.00100146
0.00110028
0.00119633
0.00128844
0.00137427
0.00145164
0.00151902
0.00157558
0.00162156
0.00165736
0.00168324
0.00169932
0.00170574
0.00170178
0.00168633
0.00165998
0.00162316
0.00157573
0.00151722
0.00144546
0.00135351
0.00123762
0.00111242
0.00101726
0.000972125
0.000959043
0.0009467
0.000920613
0.000871952
0.000769575
0.000599091
0.000307111
0.00056535
0.000755954
0.000884269
0.000987063
0.00108421
0.0011798
0.00127248
0.00135952
0.00143831
0.001507
0.00156461
0.00161139
0.00164775
0.00167396
0.00169009
0.00169621
0.00169131
0.00167497
0.00164805
0.0016121
0.00156765
0.00151446
0.00145193
0.00137576
0.00128109
0.0011701
0.0010703
0.00100972
0.000983711
0.000963515
0.000933124
0.000881076
0.000774378
0.000597077
0.000306742
0.000562596
0.000748761
0.000872767
0.000972205
0.0010672
0.001162
0.00125525
0.00134389
0.00142478
0.00149566
0.0015553
0.00160382
0.0016416
0.00166893
0.00168595
0.00169235
0.00168719
0.00166964
0.00164
0.0015995
0.00155004
0.00149315
0.00143091
0.00136058
0.00127857
0.00118798
0.00110348
0.00104325
0.00100837
0.000979733
0.000943505
0.000885469
0.000770247
0.000566256
0.000305159
0.000559818
0.000742302
0.000861948
0.000957694
0.00104996
0.00114329
0.00123649
0.00132626
0.00140903
0.00148214
0.00154414
0.00159496
0.00163489
0.00166417
0.00168301
0.0016908
0.00168645
0.00166934
0.00163925
0.00159754
0.00154592
0.00148638
0.00142075
0.00134878
0.00127195
0.00119326
0.00112269
0.00106769
0.00102933
0.000995159
0.00095498
0.000893218
0.000770939
0.000560678
0.000303236
0.000557933
0.000737541
0.000852711
0.000944377
0.00103355
0.00112504
0.00121795
0.0013088
0.00139356
0.00146908
0.00153367
0.00158712
0.0016296
0.00166136
0.00168266
0.00169262
0.00169137
0.00167716
0.00164995
0.00161065
0.00156079
0.00150169
0.001433
0.00135563
0.00127476
0.00119939
0.00113697
0.00108812
0.00104857
0.00101
0.000965857
0.000900583
0.000773892
0.000567198
0.000301426
0.000556958
0.000734165
0.000845629
0.000933073
0.00101858
0.00110765
0.00119968
0.00129118
0.00137763
0.00145531
0.00152227
0.00157812
0.001623
0.00165714
0.00168077
0.00169313
0.00169378
0.00168251
0.00165912
0.0016249
0.00158141
0.00152982
0.00146755
0.00139282
0.00130894
0.00122655
0.00115942
0.0011095
0.00106829
0.00102692
0.000980317
0.000914212
0.000790128
0.00059611
0.000301107
0.000557076
0.000733445
0.000840563
0.000923503
0.00100476
0.00109115
0.00118248
0.00127497
0.00136353
0.00144375
0.00151332
0.00157167
0.00161885
0.00165508
0.00168029
0.00169379
0.00169517
0.00168455
0.00166211
0.00163001
0.00159067
0.00154536
0.00149141
0.00142596
0.00134858
0.00126587
0.001191
0.00113304
0.00108741
0.00104306
0.00099428
0.000926573
0.000802205
0.000604253
0.00030108
0.000557461
0.000732727
0.000837135
0.000915637
0.000991947
0.00107407
0.00116371
0.00125677
0.00134739
0.00143035
0.00150283
0.00156403
0.00161388
0.00165255
0.00167956
0.00169443
0.00169643
0.00168556
0.00166229
0.00162906
0.00158879
0.00154365
0.00149211
0.00143294
0.00136604
0.00129397
0.00122318
0.00116194
0.00111027
0.00106096
0.00100864
0.000937238
0.000807272
0.000598309
0.000301155
0.000559214
0.000733962
0.00083688
0.000911182
0.00098251
0.00105956
0.00114533
0.00123798
0.00133034
0.0014161
0.00149174
0.00155619
0.00160928
0.00165117
0.00168102
0.00169916
0.00170351
0.00169405
0.00167083
0.00163618
0.00159354
0.0015451
0.00149124
0.00143106
0.00136638
0.00130262
0.00124021
0.00118174
0.00112786
0.00107531
0.00102059
0.00094687
0.000812799
0.000593675
0.000302549
0.000561881
0.000736199
0.000836982
0.000909459
0.000976472
0.00104806
0.00112862
0.00121815
0.00131136
0.00139953
0.00147818
0.00154585
0.00160237
0.0016476
0.00168108
0.00170253
0.00171252
0.00170935
0.00169216
0.00166191
0.00162111
0.00156927
0.00150655
0.00143803
0.00136962
0.00130587
0.00124984
0.00119774
0.0011458
0.00109187
0.00103472
0.000957963
0.000818468
0.000598626
0.00030592
0.000565006
0.000739077
0.000839006
0.000909388
0.00097286
0.00103947
0.00111442
0.00119937
0.0012911
0.00138149
0.00146305
0.00153366
0.00159299
0.0016407
0.00167672
0.00170126
0.00171443
0.00171649
0.00170803
0.00168908
0.00165974
0.00161735
0.00155978
0.00148875
0.00140974
0.00133602
0.00127243
0.00121774
0.00116469
0.00110927
0.00105084
0.000974987
0.000841354
0.000641129
0.000312068
0.000569112
0.000742296
0.000841517
0.000910348
0.00097163
0.00103323
0.00110159
0.00118042
0.00126856
0.00135926
0.00144356
0.00151703
0.00157887
0.00162837
0.00166565
0.00169132
0.0017062
0.00171111
0.00170729
0.00169579
0.00167714
0.00164827
0.00160464
0.00154354
0.00146776
0.00138728
0.00131181
0.00124713
0.00118865
0.00113026
0.0010699
0.00099167
0.000856983
0.000650461
0.000314561
0.000570039
0.00074423
0.000844106
0.000912651
0.000971847
0.0010293
0.00109144
0.001163
0.00124527
0.00133407
0.00142027
0.00149652
0.00156081
0.00161191
0.00164978
0.00167501
0.00168856
0.00169186
0.00168732
0.00167778
0.00166505
0.00164501
0.00161215
0.00156535
0.00150205
0.00142575
0.00134706
0.0012761
0.0012126
0.00115117
0.0010876
0.00100466
0.000861799
0.000643728
0.000314727
0.000569254
0.000744794
0.000845884
0.000915036
0.000973452
0.00102877
0.00108422
0.00114735
0.00122162
0.00130546
0.00139162
0.00147097
0.00153869
0.00159281
0.0016328
0.00165881
0.00167136
0.0016717
0.00166292
0.00164958
0.00163536
0.00161976
0.00159905
0.0015639
0.00151271
0.00144952
0.00137528
0.00130148
0.0012329
0.00116767
0.00110002
0.00100987
0.00085604
0.000607274
0.000311173
0.000565901
0.000743169
0.000846925
0.000917906
0.000976777
0.0010299
0.00108254
0.00113664
0.00120089
0.00127642
0.0013588
0.00143999
0.00151127
0.0015697
0.00161414
0.00164418
0.00165959
0.00166079
0.00164959
0.0016303
0.00160743
0.00158385
0.00156105
0.00153629
0.00150504
0.00145598
0.00139522
0.00132566
0.00125508
0.00118628
0.00111467
0.00101942
0.000856047
0.000594639
0.000305209
0.000561283
0.000740578
0.000847124
0.000920326
0.000981113
0.00103456
0.00108408
0.00113407
0.00118674
0.00125089
0.00132555
0.00140475
0.0014785
0.00154146
0.0015917
0.00162847
0.0016511
0.00165893
0.00165261
0.00163474
0.00160823
0.00157744
0.00154411
0.00151229
0.00148332
0.00144941
0.00139991
0.00133901
0.00127133
0.0012016
0.0011278
0.00102867
0.000857738
0.000595499
0.000299828
0.000555607
0.000736625
0.000846321
0.000923041
0.000986927
0.00104263
0.00109201
0.0011377
0.00118426
0.00123477
0.00129689
0.00136854
0.00144032
0.00150578
0.00156106
0.0016052
0.00163776
0.00165793
0.00166486
0.00165829
0.00163633
0.00159951
0.00155626
0.00151506
0.0014835
0.00145015
0.00140823
0.0013555
0.00129219
0.00122231
0.00114674
0.00104711
0.000876942
0.000634585
0.000296874
0.000550303
0.00073214
0.000844748
0.000925134
0.000992766
0.00105207
0.00110407
0.00114939
0.00119018
0.00123194
0.00127839
0.00133659
0.00140102
0.00146397
0.00152007
0.00156745
0.00160627
0.00163671
0.00165804
0.00166826
0.00166484
0.00164372
0.00160535
0.00155626
0.0015058
0.00146272
0.00142103
0.0013718
0.00131179
0.00124283
0.00116736
0.00106873
0.000903846
0.000676049
0.000294518
0.000543921
0.000727215
0.000843414
0.00092752
0.000999132
0.00106288
0.00111927
0.00116721
0.0012068
0.00124104
0.00127604
0.00131693
0.00136686
0.0014227
0.00147517
0.00152114
0.00156073
0.00159529
0.00162573
0.00165068
0.00166386
0.00165955
0.00163786
0.00159836
0.00154887
0.00149799
0.00144828
0.00139483
0.00133304
0.00126383
0.00118785
0.00108742
0.000920602
0.000680942
0.000291013
0.000536395
0.000721067
0.000840745
0.000928726
0.00100459
0.00107323
0.00113446
0.00118684
0.00122907
0.00126157
0.00128772
0.00131544
0.0013509
0.00139026
0.00143321
0.00147323
0.00150873
0.00154132
0.00157371
0.00160629
0.00163371
0.00164774
0.00163877
0.00161452
0.00157443
0.00152383
0.00147015
0.00141306
0.00134983
0.00128048
0.00120312
0.00109901
0.000924782
0.000665299
0.000282647
0.000524648
0.000712178
0.000836637
0.000929
0.0010085
0.00108093
0.00114682
0.00120539
0.00125402
0.00129034
0.00131457
0.00133198
0.00135176
0.0013779
0.00140642
0.00143504
0.00146242
0.00148927
0.00151829
0.00155127
0.00158523
0.00161292
0.00162539
0.00161401
0.00158766
0.00154649
0.00149287
0.00143252
0.00136679
0.00129598
0.00121658
0.00110754
0.000923271
0.000640847
0.00027389
0.000513288
0.000703598
0.000831898
0.00092756
0.00101069
0.00108723
0.00115831
0.00122291
0.00127884
0.001323
0.00135297
0.00136996
0.00138064
0.00139085
0.00140475
0.00142178
0.00143859
0.00145473
0.00147442
0.00149921
0.00152919
0.00156038
0.00158495
0.00159669
0.00158594
0.00155405
0.00150896
0.00144996
0.00138309
0.00131062
0.00122907
0.00111649
0.000924033
0.00063024
0.000263093
0.000501625
0.000694923
0.000827305
0.000925889
0.00101109
0.00108962
0.00116406
0.00123347
0.00129662
0.00134988
0.00138951
0.00141415
0.00142684
0.00143112
0.00143243
0.00143484
0.00143907
0.00144486
0.00145294
0.00146367
0.00148087
0.00150597
0.0015337
0.00155574
0.00156105
0.0015466
0.00150992
0.00145723
0.00139324
0.00132177
0.00124067
0.00112729
0.000929001
0.000630893
0.000251934
0.000493618
0.000688817
0.000823357
0.000923
0.00100928
0.00109026
0.0011682
0.00124423
0.00131562
0.00137892
0.00142967
0.00146504
0.00148607
0.00149362
0.00149175
0.00148587
0.00147968
0.00147468
0.00147012
0.00146657
0.00146703
0.00147315
0.00149046
0.00151674
0.00153625
0.00153557
0.0015093
0.00146404
0.00140361
0.00133368
0.00125309
0.00113981
0.000940552
0.000643839
0.000249587
0.000492251
0.000686575
0.000819166
0.000918781
0.00100551
0.00108745
0.00116838
0.00124929
0.00133079
0.00140838
0.00147495