/*--------------------------------*- C++ -*----------------------------------*\
| =========                 |                                                 |
| \\      /  F ield         | OpenFOAM: The Open Source CFD Toolbox           |
|  \\    /   O peration     | Version:  2.3.x                                 |
|   \\  /    A nd           | Web:      www.OpenFOAM.org                      |
|    \\/     M anipulation  |                                                 |
\*---------------------------------------------------------------------------*/
FoamFile
{
    version     2.0;
    format      ascii;
    class       volScalarField;
    location    "950";
    object      mut;
}
// * * * * * * * * * * * * * * * * * * * * * * * * * * * * * * * * * * * * * //

dimensions      [1 -1 -1 0 0 0 0];

internalField   nonuniform List<scalar> 
78750
(
3.80951e-07
1.03328e-05
1.29741e-05
1.72949e-05
2.12631e-05
2.24936e-05
2.12767e-05
1.95414e-05
1.89743e-05
1.84493e-05
1.83044e-05
1.84451e-05
1.87385e-05
1.90621e-05
1.97082e-05
2.11086e-05
2.22339e-05
2.28191e-05
2.33812e-05
2.42529e-05
2.34209e-05
2.42106e-05
2.63812e-05
2.6587e-05
2.68671e-05
2.66844e-05
2.63718e-05
2.51675e-05
2.35912e-05
2.1557e-05
1.98281e-05
1.7985e-05
1.50558e-05
1.25886e-05
5.6004e-07
1.53179e-07
9.47543e-06
1.81015e-05
8.94595e-06
9.25323e-06
1.17724e-05
1.2933e-05
1.89918e-05
2.86449e-05
3.56869e-05
3.90955e-05
4.15282e-05
4.47726e-05
4.65903e-05
4.72921e-05
4.68352e-05
4.5851e-05
4.72858e-05
5.0219e-05
5.54126e-05
6.07397e-05
6.1091e-05
6.04849e-05
5.90249e-05
5.64294e-05
5.49827e-05
4.12244e-05
3.79345e-05
4.34271e-05
3.34981e-05
2.5412e-05
2.06332e-05
1.71134e-05
1.9438e-05
6.46575e-07
5.1375e-08
3.97127e-06
5.20518e-06
6.9383e-06
1.03505e-05
1.66105e-05
2.98678e-05
4.56144e-05
5.60904e-05
6.33709e-05
6.70389e-05
6.9531e-05
7.03441e-05
7.02711e-05
6.87886e-05
6.74515e-05
7.05293e-05
7.26106e-05
6.9502e-05
6.53006e-05
6.12463e-05
5.75778e-05
5.42003e-05
5.13279e-05
4.80117e-05
3.60222e-05
3.74397e-05
4.14805e-05
3.09635e-05
2.72044e-05
2.30113e-05
1.80435e-05
1.7979e-05
3.14702e-05
8.27584e-07
6.72157e-08
4.06283e-06
7.84502e-06
1.4567e-05
2.73434e-05
4.66083e-05
6.17993e-05
6.93232e-05
7.50099e-05
8.01199e-05
8.25099e-05
8.2888e-05
8.20012e-05
8.00533e-05
7.58194e-05
7.09385e-05
6.55036e-05
5.97823e-05
5.48818e-05
5.05259e-05
4.69479e-05
4.41846e-05
4.19656e-05
3.82965e-05
3.1633e-05
3.46594e-05
3.69578e-05
3.03463e-05
2.77238e-05
2.29218e-05
1.76955e-05
1.51734e-05
1.90758e-05
2.66532e-05
8.62955e-07
1.26835e-07
4.15418e-06
9.82917e-06
2.03299e-05
3.59422e-05
5.1208e-05
6.3325e-05
7.19786e-05
7.62943e-05
7.68895e-05
7.60271e-05
7.31429e-05
6.92598e-05
6.63653e-05
6.44802e-05
6.14898e-05
5.65632e-05
5.18e-05
4.7607e-05
4.41881e-05
4.1742e-05
4.02493e-05
3.91096e-05
3.69869e-05
3.37689e-05
3.57561e-05
3.38498e-05
2.63339e-05
2.22891e-05
1.83541e-05
1.46813e-05
1.35229e-05
1.90812e-05
2.27964e-05
8.34951e-07
2.09086e-07
4.99146e-06
1.2622e-05
2.68743e-05
4.71468e-05
6.4299e-05
7.40171e-05
7.85167e-05
7.9851e-05
7.94646e-05
7.7148e-05
7.30479e-05
6.81271e-05
6.31411e-05
5.93631e-05
5.59512e-05
5.18989e-05
4.74893e-05
4.34303e-05
4.0086e-05
3.74466e-05
3.54731e-05
3.39627e-05
3.35255e-05
3.78799e-05
4.00517e-05
3.407e-05
2.78945e-05
2.16926e-05
1.62786e-05
1.26386e-05
1.23741e-05
1.92918e-05
1.7657e-05
7.74331e-07
2.46224e-07
5.22355e-06
1.34166e-05
2.86304e-05
4.85583e-05
6.4156e-05
7.31853e-05
7.7342e-05
7.77919e-05
7.55748e-05
7.23542e-05
6.90996e-05
6.50813e-05
6.00803e-05
5.52943e-05
5.10693e-05
4.76018e-05
4.45635e-05
4.1773e-05
3.92156e-05
3.70986e-05
3.56133e-05
3.47436e-05
3.47369e-05
3.79739e-05
3.8402e-05
3.23939e-05
2.64783e-05
2.04991e-05
1.49917e-05
1.15345e-05
1.16417e-05
1.91761e-05
1.52746e-05
7.37954e-07
2.7005e-07
5.39434e-06
1.39839e-05
3.02196e-05
5.16735e-05
6.73091e-05
7.47453e-05
7.69397e-05
7.61735e-05
7.39316e-05
7.09265e-05
6.75517e-05
6.41922e-05
6.08715e-05
5.73423e-05
5.35502e-05
4.96555e-05
4.59418e-05
4.25375e-05
3.93981e-05
3.65004e-05
3.38589e-05
3.15265e-05
3.02215e-05
3.35888e-05
3.62025e-05
3.23822e-05
2.73676e-05
2.0318e-05
1.43172e-05
1.09723e-05
1.11886e-05
1.90638e-05
1.35831e-05
7.32547e-07
2.73936e-07
5.42956e-06
1.40714e-05
3.03284e-05
5.16699e-05
6.74558e-05
7.55335e-05
7.85714e-05
7.84359e-05
7.63502e-05
7.31531e-05
6.94017e-05
6.54237e-05
6.14253e-05
5.75811e-05
5.39283e-05
5.04107e-05
4.70098e-05
4.38157e-05
4.08711e-05
3.81064e-05
3.52883e-05
3.21994e-05
2.96995e-05
2.95686e-05
3.27939e-05
3.07466e-05
2.46204e-05
1.94616e-05
1.40373e-05
1.06826e-05
1.09286e-05
1.88902e-05
1.24778e-05
7.46538e-07
2.80854e-07
5.4039e-06
1.39956e-05
3.0176e-05
5.16836e-05
6.79547e-05
7.64841e-05
7.98051e-05
7.98214e-05
7.79161e-05
7.50219e-05
7.17078e-05
6.82425e-05
6.45512e-05
6.07759e-05
5.70308e-05
5.33766e-05
4.98002e-05
4.63243e-05
4.29641e-05
3.97108e-05
3.64225e-05
3.30281e-05
3.00915e-05
2.82859e-05
3.08391e-05
3.03828e-05
2.40084e-05
1.89156e-05
1.38027e-05
1.05127e-05
1.07302e-05
1.87376e-05
1.16043e-05
7.84068e-07
3.01619e-07
5.49118e-06
1.43672e-05
3.10666e-05
5.24573e-05
6.82817e-05
7.67919e-05
8.03586e-05
8.06607e-05
7.89527e-05
7.60901e-05
7.28383e-05
6.97469e-05
6.6118e-05
6.20495e-05
5.87086e-05
5.56025e-05
5.23927e-05
4.90383e-05
4.54401e-05
4.16325e-05
3.77528e-05
3.34311e-05
2.91057e-05
2.92682e-05
3.16863e-05
2.69732e-05
2.14871e-05
1.74608e-05
1.32594e-05
1.04153e-05
1.08821e-05
1.95376e-05
1.07163e-05
8.13362e-07
3.14022e-07
5.53842e-06
1.45423e-05
3.16559e-05
5.35171e-05
6.93514e-05
7.77613e-05
8.1298e-05
8.15079e-05
7.96684e-05
7.67377e-05
7.29603e-05
6.81458e-05
6.43768e-05
6.22808e-05
6.01673e-05
5.79391e-05
5.54044e-05
5.24683e-05
4.92542e-05
4.55336e-05
4.10505e-05
3.62835e-05
3.16817e-05
2.77364e-05
2.83605e-05
2.68658e-05
2.10147e-05
1.67663e-05
1.278e-05
1.01683e-05
1.07507e-05
1.97142e-05
1.019e-05
8.48553e-07
3.38677e-07
5.6329e-06
1.49892e-05
3.31086e-05
5.55347e-05
7.08029e-05
7.86464e-05
8.1859e-05
8.17383e-05
7.94485e-05
7.54321e-05
7.06345e-05
6.71389e-05
6.54966e-05
6.38464e-05
6.1983e-05
5.98223e-05
5.73936e-05
5.4697e-05
5.16185e-05
4.81119e-05
4.39161e-05
3.8902e-05
3.35202e-05
2.8731e-05
2.8446e-05
2.6083e-05
2.00193e-05
1.57443e-05
1.20783e-05
9.87454e-06
1.08763e-05
2.10239e-05
9.53512e-06
8.76039e-07
3.58921e-07
5.70649e-06
1.52784e-05
3.41554e-05
5.72261e-05
7.2024e-05
7.90359e-05
8.13618e-05
8.03126e-05
7.73979e-05
7.29689e-05
6.93589e-05
6.74517e-05
6.57902e-05
6.46134e-05
6.341e-05
6.19452e-05
6.01213e-05
5.78727e-05
5.49558e-05
5.12766e-05
4.702e-05
4.2074e-05
3.63604e-05
3.07103e-05
2.93502e-05
2.56693e-05
1.91142e-05
1.47717e-05
1.14228e-05
9.6813e-06
1.12143e-05
2.26275e-05
9.05404e-06
8.91419e-07
3.90877e-07
5.806e-06
1.57586e-05
3.57039e-05
5.89383e-05
7.24672e-05
7.83668e-05
7.96915e-05
7.75656e-05
7.28518e-05
6.89162e-05
6.68276e-05
6.52246e-05
6.46435e-05
6.46739e-05
6.4674e-05
6.41722e-05
6.31472e-05
6.17826e-05
5.98272e-05
5.66899e-05
5.19912e-05
4.58032e-05
3.88197e-05
3.24244e-05
3.06634e-05
2.62403e-05
1.91238e-05
1.45446e-05
1.12061e-05
9.60033e-06
1.13495e-05
2.33321e-05
8.79794e-06
9.23137e-07
4.30839e-07
5.94164e-06
1.63511e-05
3.7546e-05
6.09496e-05
7.31883e-05
7.76982e-05
7.76106e-05
7.32892e-05
6.8815e-05
6.60196e-05
6.37465e-05
6.31579e-05
6.39856e-05
6.55231e-05
6.69189e-05
6.73305e-05
6.6848e-05
6.60879e-05
6.49864e-05
6.27159e-05
5.84802e-05
5.2012e-05
4.37345e-05
3.5714e-05
3.27427e-05
2.71594e-05
1.94336e-05
1.45189e-05
1.10651e-05
9.47529e-06
1.13901e-05
2.42817e-05
8.49984e-06
9.57791e-07
4.81726e-07
6.11305e-06
1.70937e-05
3.97145e-05
6.29996e-05
7.36214e-05
7.61402e-05
7.26851e-05
6.8224e-05
6.4622e-05
6.11872e-05
6.0134e-05
6.14005e-05
6.42168e-05
6.74752e-05
7.00664e-05
7.11838e-05
7.08739e-05
7.0182e-05
6.9488e-05
6.78005e-05
6.40539e-05
5.79441e-05
4.92533e-05
4.02051e-05
3.54171e-05
2.7779e-05
1.92666e-05
1.40222e-05
1.06606e-05
9.41864e-06
1.20624e-05
2.71378e-05
8.12402e-06
9.64616e-07
5.32937e-07
6.32724e-06
1.80204e-05
4.2284e-05
6.50563e-05
7.36137e-05
7.38537e-05
6.90972e-05
6.32614e-05
5.84488e-05
5.63631e-05
5.72292e-05
6.05574e-05
6.52603e-05
6.99074e-05
7.32896e-05
7.47267e-05
7.426e-05
7.32283e-05
7.26236e-05
7.13365e-05
6.7944e-05
6.20653e-05
5.3314e-05
4.3933e-05
3.74031e-05
2.80096e-05
1.87933e-05
1.33943e-05
1.04194e-05
9.73566e-06
1.32026e-05
2.90549e-05
7.92618e-06
9.59824e-07
5.74403e-07
6.48993e-06
1.87649e-05
4.42292e-05
6.61994e-05
7.27907e-05
7.07263e-05
6.45984e-05
5.8554e-05
5.42646e-05
5.32341e-05
5.53912e-05
5.98889e-05
6.55039e-05
7.09562e-05
7.50393e-05
7.68908e-05
7.64362e-05
7.51576e-05
7.46179e-05
7.37656e-05
7.06313e-05
6.46941e-05
5.63194e-05
4.96548e-05
4.12138e-05
2.97172e-05
2.03119e-05
1.39539e-05
1.05068e-05
9.72254e-06
1.30909e-05
2.88493e-05
7.8318e-06
9.74101e-07
6.01903e-07
6.62329e-06
1.93484e-05
4.55124e-05
6.665e-05
7.1872e-05
6.83957e-05
6.19928e-05
5.55571e-05
5.13399e-05
5.06997e-05
5.31688e-05
5.80439e-05
6.43543e-05
7.05986e-05
7.54658e-05
7.81408e-05
7.8482e-05
7.7519e-05
7.72555e-05
7.71527e-05
7.50504e-05
7.01616e-05
6.21062e-05
5.51031e-05
4.47706e-05
3.23005e-05
2.24931e-05
1.52596e-05
1.08596e-05
9.57416e-06
1.30531e-05
3.01381e-05
7.61769e-06
1.00159e-06
6.20373e-07
6.71118e-06
1.97603e-05
4.6311e-05
6.64711e-05
7.07289e-05
6.69852e-05
6.03654e-05
5.42399e-05
5.0289e-05
4.8653e-05
4.9996e-05
5.44099e-05
6.09673e-05
6.82601e-05
7.4545e-05
7.85298e-05
7.98457e-05
7.94217e-05
7.94592e-05
8.00653e-05
7.90893e-05
7.55656e-05
6.78386e-05
5.84229e-05
4.493e-05
3.1459e-05
2.17902e-05
1.51326e-05
1.12443e-05
1.04406e-05
1.52037e-05
3.1997e-05
7.39003e-06
9.90289e-07
6.34776e-07
6.77244e-06
2.01138e-05
4.71013e-05
6.65789e-05
7.05426e-05
6.69016e-05
6.03719e-05
5.42175e-05
4.98037e-05
4.76536e-05
4.79569e-05
5.08356e-05
5.6634e-05
6.43447e-05
7.17413e-05
7.71997e-05
7.97228e-05
7.97817e-05
8.00405e-05
8.07914e-05
7.98232e-05
7.63087e-05
6.88361e-05
5.89304e-05
4.50067e-05
3.0949e-05
2.08546e-05
1.4562e-05
1.14654e-05
1.15343e-05
1.73517e-05
3.18782e-05
7.35219e-06
9.70504e-07
6.47069e-07
6.79462e-06
2.0271e-05
4.74495e-05
6.64863e-05
7.04428e-05
6.73984e-05
6.13167e-05
5.47539e-05
4.95364e-05
4.65449e-05
4.59533e-05
4.80206e-05
5.24446e-05
5.90087e-05
6.71086e-05
7.418e-05
7.83426e-05
7.95406e-05
7.99661e-05
8.05762e-05
7.9669e-05
7.59954e-05
6.87546e-05
6.03015e-05
4.74069e-05
3.34252e-05
2.264e-05
1.53847e-05
1.18027e-05
1.17608e-05
1.74174e-05
3.20554e-05
7.41899e-06
9.85326e-07
6.54785e-07
6.80962e-06
2.03138e-05
4.72688e-05
6.58644e-05
6.99613e-05
6.75883e-05
6.26104e-05
5.70127e-05
5.16751e-05
4.72834e-05
4.47571e-05
4.47308e-05
4.77565e-05
5.3626e-05
6.12933e-05
6.93516e-05
7.56373e-05
7.88065e-05
8.03355e-05
8.15411e-05
8.11131e-05
7.67371e-05
7.12815e-05
6.20626e-05
4.84044e-05
3.57298e-05
2.51943e-05
1.72717e-05
1.26165e-05
1.17411e-05
1.70025e-05
3.27349e-05
7.38436e-06
1.03729e-06
6.62106e-07
6.83724e-06
2.03382e-05
4.66011e-05
6.48702e-05
6.92218e-05
6.75092e-05
6.33116e-05
5.84499e-05
5.37413e-05
4.93858e-05
4.56762e-05
4.35015e-05
4.38149e-05
4.72898e-05
5.39462e-05
6.21833e-05
7.01361e-05
7.58722e-05
7.89859e-05
8.09516e-05
8.1222e-05
7.76073e-05
7.16634e-05
6.05192e-05
4.67892e-05
3.48402e-05
2.48907e-05
1.75954e-05
1.3365e-05
1.2898e-05
1.92565e-05
3.27688e-05
7.28967e-06
1.03779e-06
6.67066e-07
6.8627e-06
2.03704e-05
4.63013e-05
6.43035e-05
6.89605e-05
6.78375e-05
6.44127e-05
6.02934e-05
5.61784e-05
5.21627e-05
4.82298e-05
4.46584e-05
4.23786e-05
4.27249e-05
4.63094e-05
5.33325e-05
6.15539e-05
6.88956e-05
7.43123e-05
7.73553e-05
7.79657e-05
7.46538e-05
6.89322e-05
5.83438e-05
4.53889e-05
3.39794e-05
2.44667e-05
1.76901e-05
1.40094e-05
1.40994e-05
2.12306e-05
3.28242e-05
7.36454e-06
1.03647e-06
6.67937e-07
6.85725e-06
2.034e-05
4.61033e-05
6.39466e-05
6.92559e-05
6.87594e-05
6.60276e-05
6.24526e-05
5.86984e-05
5.50029e-05
5.13191e-05
4.75786e-05
4.40166e-05
4.15129e-05
4.15659e-05
4.48792e-05
5.17906e-05
6.01054e-05
6.71213e-05
7.21e-05
7.3963e-05
7.1453e-05
6.67716e-05
5.6862e-05
4.48022e-05
3.447e-05
2.54285e-05
1.85599e-05
1.46736e-05
1.46686e-05
2.18635e-05
3.33154e-05
7.39718e-06
1.0541e-06
6.6557e-07
6.83607e-06
2.0247e-05
4.55686e-05
6.35844e-05
6.94675e-05
6.99755e-05
6.78484e-05
6.49868e-05
6.16692e-05
5.81892e-05
5.4596e-05
5.08668e-05
4.70084e-05
4.32978e-05
4.05673e-05
4.0212e-05
4.31406e-05
4.95476e-05
5.74471e-05
6.44131e-05
6.86824e-05
6.98313e-05
6.4482e-05
5.40849e-05
4.34373e-05
3.3527e-05
2.51969e-05
1.89177e-05
1.53533e-05
1.57339e-05
2.38697e-05
3.30667e-05
7.35682e-06
1.06418e-06
6.59521e-07
6.83186e-06
2.01371e-05
4.48618e-05
6.31132e-05
6.96722e-05
7.10419e-05
6.9759e-05
6.7296e-05
6.43614e-05
6.12033e-05
5.78231e-05
5.42078e-05
5.03243e-05
4.62214e-05
4.22428e-05
3.9224e-05
3.83161e-05
4.04729e-05
4.59925e-05
5.34211e-05
6.00504e-05
6.37872e-05
5.98116e-05
5.06728e-05
4.12098e-05
3.20285e-05
2.4293e-05
1.88193e-05
1.60977e-05
1.73671e-05
2.65738e-05
3.29298e-05
7.4369e-06
1.06166e-06
6.53181e-07
6.80192e-06
2.00266e-05
4.44859e-05
6.27621e-05
6.97664e-05
7.17553e-05
7.13778e-05
6.95592e-05
6.71241e-05
6.42634e-05
6.10788e-05
5.75748e-05
5.37483e-05
4.95881e-05
4.51839e-05
4.09167e-05
3.75531e-05
3.60303e-05
3.72656e-05
4.18538e-05
4.86133e-05
5.48525e-05
5.42744e-05
4.75148e-05
3.98287e-05
3.1686e-05
2.44095e-05
1.91201e-05
1.65785e-05
1.80883e-05
2.75141e-05
3.33688e-05
7.5336e-06
1.06714e-06
6.40156e-07
6.76461e-06
1.97824e-05
4.3774e-05
6.24506e-05
7.01547e-05
7.26189e-05
7.29064e-05
7.18065e-05
6.9928e-05
6.74739e-05
6.45736e-05
6.12406e-05
5.74886e-05
5.33178e-05
4.87523e-05
4.39665e-05
3.94222e-05
3.578e-05
3.38267e-05
3.43571e-05
3.78996e-05
4.47799e-05
4.76088e-05
4.36011e-05
3.81499e-05
3.14815e-05
2.4823e-05
1.96582e-05
1.69784e-05
1.83468e-05
2.77511e-05
3.43156e-05
7.66064e-06
1.11161e-06
6.28127e-07
6.72368e-06
1.96279e-05
4.35074e-05
6.26358e-05
7.10928e-05
7.44138e-05
7.48702e-05
7.4253e-05
7.2839e-05
7.08095e-05
6.82341e-05
6.51351e-05
6.15345e-05
5.74436e-05
5.28515e-05
4.77915e-05
4.25237e-05
3.75815e-05
3.35994e-05
3.12705e-05
3.13717e-05
3.55381e-05
3.93353e-05
3.83096e-05
3.52249e-05
2.99875e-05
2.43215e-05
1.96637e-05
1.73629e-05
1.92077e-05
2.95071e-05
3.39932e-05
7.65654e-06
1.12358e-06
6.162e-07
6.65167e-06
1.93839e-05
4.33305e-05
6.32292e-05
7.22966e-05
7.60125e-05
7.70248e-05
7.66902e-05
7.56079e-05
7.39763e-05
7.17709e-05
6.89808e-05
6.56029e-05
6.16367e-05
5.70702e-05
5.18926e-05
4.62042e-05
4.03682e-05
3.49187e-05
3.05791e-05
2.82732e-05
2.97476e-05
3.18681e-05
3.18057e-05
3.10005e-05
2.76339e-05
2.32094e-05
1.95256e-05
1.80045e-05
2.07408e-05
3.20095e-05
3.38123e-05
7.76484e-06
1.1254e-06
6.10615e-07
6.58896e-06
1.91942e-05
4.30263e-05
6.30956e-05
7.25733e-05
7.67521e-05
7.86447e-05
7.89397e-05
7.82504e-05
7.69204e-05
7.50306e-05
7.25535e-05
6.94707e-05
6.57396e-05
6.13023e-05
5.61173e-05
5.01945e-05
4.37493e-05
3.72715e-05
3.14665e-05
2.73454e-05
2.68967e-05
2.73575e-05
2.68055e-05
2.69462e-05
2.56055e-05
2.25241e-05
1.95869e-05
1.84726e-05
2.15377e-05
3.30388e-05
3.42148e-05
7.85146e-06
1.13466e-06
6.1033e-07
6.55481e-06
1.90496e-05
4.24317e-05
6.25186e-05
7.27841e-05
7.80623e-05
8.05039e-05
8.12412e-05
8.09584e-05
7.99236e-05
7.83501e-05
7.6178e-05
7.34085e-05
6.99746e-05
6.57713e-05
6.06963e-05
5.47005e-05
4.79278e-05
4.08642e-05
3.42565e-05
2.87892e-05
2.47963e-05
2.45263e-05
2.48324e-05
2.37188e-05
2.32329e-05
2.15518e-05
1.9346e-05
1.85187e-05
2.16942e-05
3.33589e-05
3.50461e-05
7.98578e-06
1.18429e-06
6.1989e-07
6.53859e-06
1.9194e-05
4.32611e-05
6.38102e-05
7.41816e-05
7.94171e-05
8.2097e-05
8.32252e-05
8.34067e-05
8.29169e-05
8.17869e-05
8.00557e-05
7.76199e-05
7.44247e-05
7.04808e-05
6.56459e-05
5.96489e-05
5.27127e-05
4.53247e-05
3.77808e-05
3.08031e-05
2.51171e-05
2.33321e-05
2.23593e-05
2.0923e-05
2.08082e-05
2.0089e-05
1.88055e-05
1.8659e-05
2.26305e-05
3.53229e-05
3.43043e-05
7.94406e-06
1.19435e-06
6.28414e-07
6.55678e-06
1.94206e-05
4.41208e-05
6.47125e-05
7.48932e-05
8.00627e-05
8.26644e-05
8.38613e-05
8.414e-05
8.38852e-05
8.31063e-05
8.17248e-05
7.97439e-05
7.7097e-05
7.36946e-05
6.95046e-05
6.4477e-05
5.80646e-05
5.00457e-05
4.12892e-05
3.28823e-05
2.6146e-05
2.28928e-05
2.05635e-05
1.88458e-05
1.86817e-05
1.84829e-05
1.81958e-05
1.91906e-05
2.44156e-05
3.79072e-05
3.34872e-05
7.96196e-06
1.18342e-06
6.3886e-07
6.55273e-06
1.95211e-05
4.44176e-05
6.4841e-05
7.5086e-05
8.05967e-05
8.33005e-05
8.47709e-05
8.54102e-05
8.54277e-05
8.49634e-05
8.39163e-05
8.2181e-05
7.97231e-05
7.64034e-05
7.22896e-05
6.74039e-05
6.15109e-05
5.42726e-05
4.52651e-05
3.5665e-05
2.77958e-05
2.33835e-05
1.98793e-05
1.77443e-05
1.74125e-05
1.73912e-05
1.77713e-05
1.95294e-05
2.55261e-05
3.89448e-05
3.36871e-05
8.03321e-06
1.18311e-06
6.56239e-07
6.59958e-06
1.98798e-05
4.54164e-05
6.56772e-05
7.57339e-05
8.11494e-05
8.41642e-05
8.58894e-05
8.67539e-05
8.7071e-05
8.69529e-05
8.63268e-05
8.50827e-05
8.31542e-05
8.04064e-05
7.67102e-05
7.20173e-05
6.6156e-05
5.88745e-05
5.00396e-05
3.96855e-05
3.04188e-05
2.54932e-05
2.07618e-05
1.71306e-05
1.65282e-05
1.68283e-05
1.74216e-05
1.91833e-05
2.5005e-05
3.86861e-05
3.42579e-05
8.15949e-06
1.22412e-06
6.77866e-07
6.66075e-06
2.02948e-05
4.65473e-05
6.65437e-05
7.60931e-05
8.13815e-05
8.44649e-05
8.63974e-05
8.75993e-05
8.82617e-05
8.84656e-05
8.81732e-05
8.73142e-05
8.58607e-05
8.38116e-05
8.10161e-05
7.73984e-05
7.2477e-05
6.53912e-05
5.55502e-05
4.431e-05
3.38376e-05
2.76554e-05
2.1675e-05
1.70976e-05
1.5923e-05
1.60737e-05
1.66209e-05
1.85504e-05
2.46811e-05
3.91912e-05
3.35969e-05
8.05693e-06
1.25574e-06
6.9855e-07
6.7391e-06
2.07741e-05
4.7325e-05
6.6508e-05
7.58812e-05
8.10018e-05
8.40071e-05
8.61388e-05
8.77239e-05
8.88704e-05
8.95317e-05
8.95601e-05
8.88338e-05
8.7318e-05
8.50602e-05
8.20437e-05
7.86161e-05
7.48962e-05
7.01042e-05
6.23609e-05
5.07519e-05
3.78605e-05
2.85984e-05
2.14864e-05
1.67876e-05
1.51473e-05
1.52113e-05
1.61868e-05
1.89112e-05
2.66416e-05
4.24296e-05
3.20464e-05
7.99496e-06
1.24274e-06
7.11805e-07
6.81711e-06
2.11175e-05
4.79169e-05
6.68908e-05
7.55613e-05
8.01295e-05
8.28835e-05
8.50652e-05
8.6881e-05
8.841e-05
8.95531e-05
9.00863e-05
8.98096e-05
8.8611e-05
8.64655e-05
8.33982e-05
7.98049e-05
7.60359e-05
7.16544e-05
6.49704e-05
5.47054e-05
4.19995e-05
3.03366e-05
2.15639e-05
1.65648e-05
1.46815e-05
1.4645e-05
1.59916e-05
1.95351e-05
2.82668e-05
4.36018e-05
3.10439e-05
7.87743e-06
1.19392e-06
7.18285e-07
6.85051e-06
2.1494e-05
4.88739e-05
6.71458e-05
7.51734e-05
7.93092e-05
8.19377e-05
8.40237e-05
8.59759e-05
8.77955e-05
8.92457e-05
9.00671e-05
9.00412e-05
8.90122e-05
8.69177e-05
8.38144e-05
8.01563e-05
7.65203e-05
7.26936e-05
6.69671e-05
5.79303e-05
4.61973e-05
3.47994e-05
2.40938e-05
1.70992e-05
1.44614e-05
1.43428e-05
1.58326e-05
1.97071e-05
2.85884e-05
4.36996e-05
3.12777e-05
7.90504e-06
1.19291e-06
7.23259e-07
6.88313e-06
2.17537e-05
4.93715e-05
6.70553e-05
7.45462e-05
7.83883e-05
8.09506e-05
8.31301e-05
8.52047e-05
8.72289e-05
8.9073e-05
9.03842e-05
9.08488e-05
9.03041e-05
8.86463e-05
8.59403e-05
8.25856e-05
7.92966e-05
7.59394e-05
7.05331e-05
6.13778e-05
4.95726e-05
3.96605e-05
2.84494e-05
1.94957e-05
1.52214e-05
1.42219e-05
1.5673e-05
1.94995e-05
2.77722e-05
4.34368e-05
3.24007e-05
8.0447e-06
1.2435e-06
7.30413e-07
6.91764e-06
2.19688e-05
4.95806e-05
6.67355e-05
7.38194e-05
7.7398e-05
7.98353e-05
8.2092e-05
8.44871e-05
8.69361e-05
8.91514e-05
9.08931e-05
9.18833e-05
9.17844e-05
9.04721e-05
8.80328e-05
8.48741e-05
8.18805e-05
7.91638e-05
7.45038e-05
6.52635e-05
5.21203e-05
4.14476e-05
3.03582e-05
2.13935e-05
1.65429e-05
1.45973e-05
1.51317e-05
1.86866e-05
2.85795e-05
4.59674e-05
3.01987e-05
7.89389e-06
1.2527e-06
7.34084e-07
6.94969e-06
2.21928e-05
4.97983e-05
6.62539e-05
7.28859e-05
7.62077e-05
7.85489e-05
8.0842e-05
8.33865e-05
8.61113e-05
8.87116e-05
9.07971e-05
9.20859e-05
9.24246e-05
9.16068e-05
8.95543e-05
8.66706e-05
8.38841e-05
8.15349e-05
7.75026e-05
6.85781e-05
5.40688e-05
3.98626e-05
2.83091e-05
2.0716e-05
1.66179e-05
1.50396e-05
1.60106e-05
2.06883e-05
3.24903e-05
4.78882e-05
2.89608e-05
7.76148e-06
1.20767e-06
7.32974e-07
6.98065e-06
2.24163e-05
5.00081e-05
6.58254e-05
7.19871e-05
7.50063e-05
7.72033e-05
7.94896e-05
8.21088e-05
8.49361e-05
8.76469e-05
8.98536e-05
9.12018e-05
9.14455e-05
9.05621e-05
8.85403e-05
8.57036e-05
8.29263e-05
8.0628e-05
7.69603e-05
6.90444e-05
5.545e-05
4.00497e-05
2.80662e-05
2.06958e-05
1.68348e-05
1.55518e-05
1.67833e-05
2.18313e-05
3.37433e-05
4.8456e-05
2.81521e-05
7.64603e-06
1.15129e-06
7.25727e-07
6.96648e-06
2.25067e-05
5.01064e-05
6.52366e-05
7.08352e-05
7.34907e-05
7.55274e-05
7.78174e-05
8.05481e-05
8.35319e-05
8.63866e-05
8.87019e-05
9.01317e-05
9.04121e-05
8.94263e-05
8.73751e-05
8.47e-05
8.20555e-05
7.97983e-05
7.61968e-05
6.90656e-05
5.73543e-05
4.31426e-05
3.02141e-05
2.14728e-05
1.70117e-05
1.56517e-05
1.6946e-05
2.19554e-05
3.37841e-05
4.86076e-05
2.83788e-05
7.66344e-06
1.15032e-06
7.23804e-07
6.96434e-06
2.2603e-05
5.01292e-05
6.45621e-05
6.96472e-05
7.19904e-05
7.39267e-05
7.62778e-05
7.91807e-05
8.2399e-05
8.55022e-05
8.8039e-05
8.96283e-05
8.99989e-05
8.90541e-05
8.69657e-05
8.42046e-05
8.16731e-05
7.95738e-05
7.57278e-05
6.8583e-05
5.99153e-05
4.87141e-05
3.48894e-05
2.40782e-05
1.81413e-05
1.60202e-05
1.70299e-05
2.21056e-05
3.36341e-05
4.81791e-05
3.00021e-05
7.83549e-06
1.20721e-06
7.25652e-07
6.97741e-06
2.2793e-05
5.02096e-05
6.38518e-05
6.84392e-05
7.05596e-05
7.24965e-05
7.50171e-05
7.81908e-05
8.17273e-05
8.51632e-05
8.80344e-05
8.99367e-05
9.05587e-05
8.97819e-05
8.78183e-05
8.51889e-05
8.2787e-05
8.08604e-05
7.74637e-05
7.05517e-05
6.24486e-05
5.00993e-05
3.71073e-05
2.72813e-05
2.02285e-05
1.69711e-05
1.72755e-05
2.12809e-05
3.19619e-05
4.86851e-05
2.92706e-05
7.79331e-06
1.24901e-06
7.26926e-07
6.99901e-06
2.29682e-05
5.02538e-05
6.31366e-05
6.71911e-05
6.90581e-05
7.10015e-05
7.37363e-05
7.72435e-05
8.11359e-05
8.48882e-05
8.80175e-05
9.01179e-05
9.0871e-05
9.0134e-05
8.80974e-05
8.5341e-05
8.30359e-05
8.17389e-05
7.91225e-05
7.13317e-05
6.07693e-05
4.77632e-05
3.58838e-05
2.73842e-05
2.14438e-05
1.80006e-05
1.78494e-05
2.27836e-05
3.60305e-05
5.0684e-05
2.86171e-05
7.77388e-06
1.24465e-06
7.26055e-07
7.01505e-06
2.3076e-05
5.01803e-05
6.2287e-05
6.56829e-05
6.71054e-05
6.89251e-05
7.18417e-05
7.57367e-05
8.00949e-05
8.42879e-05
8.77627e-05
9.00679e-05
9.08693e-05
9.00463e-05
8.77999e-05
8.47303e-05
8.19919e-05
8.01965e-05
7.74108e-05
6.98744e-05
5.80588e-05
4.52561e-05
3.43715e-05
2.65375e-05
2.14129e-05
1.88941e-05
1.95492e-05
2.52754e-05
3.88083e-05
5.13032e-05
2.74899e-05
7.66688e-06
1.18059e-06
7.22329e-07
7.01651e-06
2.31374e-05
4.99539e-05
6.13524e-05
6.40864e-05
6.49673e-05
6.65358e-05
6.95226e-05
7.37068e-05
7.84758e-05
8.3108e-05
8.69734e-05
8.95496e-05
9.0443e-05
8.9518e-05
8.69682e-05
8.33962e-05
7.99838e-05
7.7433e-05
7.43898e-05
6.78075e-05
5.71507e-05
4.50766e-05
3.43465e-05
2.6556e-05
2.17563e-05
1.96556e-05
2.06585e-05
2.64275e-05
3.93962e-05
5.17207e-05
2.78696e-05
7.68871e-06
1.16901e-06
7.17798e-07
6.9862e-06
2.30708e-05
4.99782e-05
6.01808e-05
6.23339e-05
6.27868e-05
6.40847e-05
6.71457e-05
7.16436e-05
7.68613e-05
8.19963e-05
8.63571e-05
8.93629e-05
9.05525e-05
8.9724e-05
8.70128e-05
8.30771e-05
7.90838e-05
7.58467e-05
7.25153e-05
6.71859e-05
5.76893e-05
4.61611e-05
3.57142e-05
2.75477e-05
2.23706e-05
2.01874e-05
2.12096e-05
2.69214e-05
3.99695e-05
5.22089e-05
2.83491e-05
7.76049e-06
1.18259e-06
7.13537e-07
6.95929e-06
2.29484e-05
4.95805e-05
5.91265e-05
6.00551e-05
6.01418e-05
6.14744e-05
6.47067e-05
6.96036e-05
7.53575e-05
8.10745e-05
8.59996e-05
8.95105e-05
9.11063e-05
9.05284e-05
8.78698e-05
8.37585e-05
7.9465e-05
7.57291e-05
7.18696e-05
6.7081e-05
5.81173e-05
4.72694e-05
3.7785e-05
2.96956e-05
2.3722e-05
2.08853e-05
2.17114e-05
2.71953e-05
3.92021e-05
5.21952e-05
2.97695e-05
7.89369e-06
1.24251e-06
7.12788e-07
6.95633e-06
2.29397e-05
4.94972e-05
5.86621e-05
5.85842e-05
5.74164e-05
5.84085e-05
6.18461e-05
6.72945e-05
7.3808e-05
8.03507e-05
8.60624e-05
9.02576e-05
9.23909e-05
9.21098e-05
8.94393e-05
8.50616e-05
8.04121e-05
7.6312e-05
7.20205e-05
6.68949e-05
5.78681e-05
4.73281e-05
3.83989e-05
3.08656e-05
2.52385e-05
2.20533e-05
2.20645e-05
2.69699e-05
3.95836e-05
5.32172e-05
2.92031e-05
7.89417e-06
1.25935e-06
7.12724e-07
6.94539e-06
2.288e-05
4.93852e-05
5.81017e-05
5.72529e-05
5.50966e-05
5.5426e-05
5.86372e-05
6.44358e-05
7.16715e-05
7.90792e-05
8.56452e-05
9.05907e-05
9.32881e-05
9.32429e-05
9.0415e-05
8.56166e-05
8.05925e-05
7.64098e-05
7.15671e-05
6.53294e-05
5.65743e-05
4.66696e-05
3.78778e-05
3.06734e-05
2.55242e-05
2.28203e-05
2.33287e-05
2.89831e-05
4.2367e-05
5.40651e-05
2.89395e-05
7.90968e-06
1.24691e-06
7.12901e-07
6.92697e-06
2.27744e-05
4.92403e-05
5.73727e-05
5.5975e-05
5.26114e-05
5.2018e-05
5.53408e-05
6.12847e-05
6.91027e-05
7.73069e-05
8.46606e-05
9.02703e-05
9.3445e-05
9.35969e-05
9.06329e-05
8.52544e-05
7.93708e-05
7.47199e-05
7.04135e-05
6.45523e-05
5.60059e-05
4.64325e-05
3.76508e-05
3.05444e-05
2.58172e-05
2.36186e-05
2.45639e-05
3.03758e-05
4.31392e-05
5.43056e-05
2.92352e-05
7.94454e-06
1.23728e-06
7.1618e-07
6.90307e-06
2.26773e-05
4.90724e-05
5.67032e-05
5.43902e-05
5.0608e-05
4.91907e-05
5.17785e-05
5.80133e-05
6.63801e-05
7.53476e-05
8.35233e-05
8.98608e-05
9.35848e-05
9.40764e-05
9.11233e-05
8.54476e-05
7.87815e-05
7.33983e-05
6.97447e-05
6.35998e-05
5.53555e-05
4.72999e-05
3.89869e-05
3.16012e-05
2.64735e-05
2.41968e-05
2.52246e-05
3.10431e-05
4.367e-05
5.47461e-05
2.97019e-05
8.03585e-06
1.2476e-06
7.24117e-07
6.91264e-06
2.27089e-05
4.90757e-05
5.65012e-05
5.36294e-05
4.92725e-05
4.69427e-05
4.87286e-05
5.49011e-05
6.36816e-05
7.35097e-05
8.27308e-05
9.0067e-05
9.45775e-05
9.55824e-05
9.28349e-05
8.68596e-05
7.92854e-05
7.28607e-05
6.94674e-05
6.34221e-05
5.54877e-05
4.89666e-05
4.19036e-05
3.45498e-05
2.83189e-05
2.50564e-05
2.57972e-05
3.11035e-05
4.24041e-05
5.49131e-05
3.18358e-05
8.25213e-06
1.33565e-06
7.38594e-07
6.95731e-06
2.29392e-05
4.9243e-05
5.63663e-05
5.34381e-05
4.83543e-05
4.54889e-05
4.64379e-05
5.17719e-05
6.06934e-05
7.13243e-05
8.17139e-05
9.03163e-05
9.59077e-05
9.76603e-05
9.53097e-05
8.93634e-05
8.12599e-05
7.35751e-05
6.87346e-05
6.19863e-05
5.44801e-05
4.89679e-05
4.30618e-05
3.64912e-05
3.05613e-05
2.66181e-05
2.60109e-05
3.0916e-05
4.40385e-05
5.67777e-05
3.06214e-05
8.21965e-06
1.35494e-06
7.44457e-07
6.98526e-06
2.30546e-05
4.91666e-05
5.65057e-05
5.34778e-05
4.84101e-05
4.48452e-05
4.44256e-05
4.84887e-05
5.71958e-05
6.8186e-05
7.96166e-05
8.94779e-05
9.61699e-05
9.8616e-05
9.6563e-05
9.07198e-05
8.24875e-05
7.38153e-05
6.64204e-05
5.8793e-05
5.19466e-05
4.66647e-05
4.14821e-05
3.5927e-05
3.07573e-05
2.75484e-05
2.81265e-05
3.48626e-05
4.91362e-05
5.76131e-05
3.02635e-05
8.19834e-06
1.34083e-06
7.44843e-07
6.9736e-06
2.30525e-05
4.93491e-05
5.66738e-05
5.37232e-05
4.83958e-05
4.45283e-05
4.35664e-05
4.57028e-05
5.24172e-05
6.35911e-05
7.57561e-05
8.67767e-05
9.45591e-05
9.77065e-05
9.59063e-05
9.01481e-05
8.22108e-05
7.37767e-05
6.45916e-05
5.57677e-05
4.88406e-05
4.3533e-05
3.90242e-05
3.48131e-05
3.11738e-05
2.92509e-05
3.1076e-05
3.91007e-05
5.28984e-05
5.79022e-05
2.895e-05
8.13238e-06
1.26519e-06
7.36464e-07
6.97992e-06
2.29499e-05
4.90376e-05
5.68654e-05
5.44984e-05
4.92281e-05
4.47774e-05
4.28571e-05
4.41663e-05
4.84432e-05
5.7155e-05
6.99151e-05
8.21434e-05
9.12594e-05
9.54499e-05
9.421e-05
8.87437e-05
8.14199e-05
7.28598e-05
6.3527e-05
5.47226e-05
4.71078e-05
4.11414e-05
3.68318e-05
3.3758e-05
3.1575e-05
3.10546e-05
3.37566e-05
4.18896e-05
5.44179e-05
5.83593e-05
2.91172e-05
8.15887e-06
1.23899e-06
7.22411e-07
6.93136e-06
2.27563e-05
4.87476e-05
5.71166e-05
5.53784e-05
5.05129e-05
4.56808e-05
4.26811e-05
4.24916e-05
4.58496e-05
5.22926e-05
6.25376e-05
7.5651e-05
8.65113e-05
9.22913e-05
9.19819e-05
8.69256e-05
7.97948e-05
7.21383e-05
6.38595e-05
5.53446e-05
4.75505e-05
4.10495e-05
3.62818e-05
3.32523e-05
3.16769e-05
3.17893e-05
3.49049e-05
4.27605e-05
5.47635e-05
5.88045e-05
2.94834e-05
8.1883e-06
1.24082e-06
7.09727e-07
6.88678e-06
2.25357e-05
4.83568e-05
5.74169e-05
5.65215e-05
5.24078e-05
4.77807e-05
4.40005e-05
4.21683e-05
4.32694e-05
4.83099e-05
5.69536e-05
6.85105e-05
8.09146e-05
8.89859e-05
9.02817e-05
8.56135e-05
7.85193e-05
7.26722e-05
6.50307e-05
5.63871e-05
4.93273e-05
4.29551e-05
3.75543e-05
3.37878e-05
3.18907e-05
3.21965e-05
3.55558e-05
4.35939e-05
5.49002e-05
5.95335e-05
3.15865e-05
8.4872e-06
1.32191e-06
7.02765e-07
6.87e-06
2.24086e-05
4.79606e-05
5.77136e-05
5.78642e-05
5.47592e-05
5.04541e-05
4.62982e-05
4.34206e-05
4.27019e-05
4.50838e-05
5.17289e-05
6.23074e-05
7.48e-05
8.54505e-05
8.94354e-05
8.58417e-05
7.83774e-05
7.27058e-05
6.49403e-05
5.65893e-05
5.07686e-05
4.53701e-05
4.01601e-05
3.56278e-05
3.28436e-05
3.23617e-05
3.47634e-05
4.13216e-05
5.29459e-05
6.02484e-05
3.20265e-05
8.54951e-06
1.40771e-06
6.9721e-07
6.85707e-06
2.2283e-05
4.76677e-05
5.82256e-05
5.92851e-05
5.68185e-05
5.31193e-05
4.92482e-05
4.57437e-05
4.36327e-05
4.40028e-05
4.7867e-05
5.6006e-05
6.8012e-05
8.03936e-05
8.74637e-05
8.59686e-05
7.82565e-05
7.10199e-05
6.26406e-05
5.48809e-05
4.98152e-05
4.53253e-05
4.07478e-05
3.64765e-05
3.33842e-05
3.25298e-05
3.53736e-05
4.37311e-05
5.69169e-05
6.12518e-05
3.10432e-05
8.56158e-06
1.41775e-06
6.88944e-07
6.85472e-06
2.22546e-05
4.75478e-05
5.87908e-05
6.07517e-05
5.9139e-05
5.62035e-05
5.24971e-05
4.86094e-05
4.55195e-05
4.41625e-05
4.56078e-05
5.10122e-05
6.06463e-05
7.28759e-05
8.24372e-05
8.37762e-05
7.68016e-05
6.75193e-05
5.83372e-05
5.12815e-05
4.68824e-05
4.32053e-05
3.96738e-05
3.62567e-05
3.39034e-05
3.40849e-05
3.84059e-05
4.81809e-05
6.0351e-05
6.13798e-05
3.06771e-05
8.52151e-06
1.38525e-06
6.6922e-07
6.77452e-06
2.18708e-05
4.71459e-05
5.94028e-05
6.22374e-05
6.13093e-05
5.83386e-05
5.47463e-05
5.11995e-05
4.77637e-05
4.52874e-05
4.48491e-05
4.76744e-05
5.45764e-05
6.48274e-05
7.50004e-05
7.92486e-05
7.48981e-05
6.48942e-05
5.48462e-05
4.77754e-05
4.34635e-05
4.07675e-05
3.84873e-05
3.64612e-05
3.52256e-05
3.62116e-05
4.13569e-05
5.15778e-05
6.23377e-05
6.10823e-05
2.98094e-05
8.50678e-06
1.33454e-06
6.48568e-07