/*--------------------------------*- C++ -*----------------------------------*\
| =========                 |                                                 |
| \\      /  F ield         | OpenFOAM: The Open Source CFD Toolbox           |
|  \\    /   O peration     | Version:  2.0.x                                 |
|   \\  /    A nd           | Web:      www.OpenFOAM.org                      |
|    \\/     M anipulation  |                                                 |
\*---------------------------------------------------------------------------*/
FoamFile
{
    version     2.0;
    format      ascii;
    class       volScalarField;
    location    "950";
    object      mut;
}
// * * * * * * * * * * * * * * * * * * * * * * * * * * * * * * * * * * * * * //

dimensions      [1 -1 -1 0 0 0 0];

internalField   nonuniform List<scalar> 
78750
(
3.97137e-08
1.47845e-05
1.83027e-05
2.13041e-05
2.37533e-05
2.40712e-05
2.35153e-05
2.28759e-05
2.24297e-05
2.22428e-05
2.22212e-05
2.2488e-05
2.26692e-05
2.28639e-05
2.46122e-05
2.60971e-05
2.62039e-05
2.63689e-05
2.7355e-05
2.6151e-05
2.71376e-05
2.95451e-05
2.86639e-05
2.89147e-05
2.91501e-05
2.88176e-05
2.80008e-05
2.64612e-05
2.56735e-05
2.48397e-05
2.32604e-05
2.15411e-05
1.95511e-05
1.60071e-05
9.71327e-08
2.61841e-08
1.14552e-05
8.77295e-06
8.98673e-06
1.15969e-05
1.70609e-05
2.33574e-05
2.95717e-05
3.46132e-05
3.89527e-05
4.10932e-05
4.46377e-05
4.89416e-05
4.94609e-05
5.09542e-05
5.31651e-05
5.67346e-05
5.86978e-05
6.33688e-05
6.88628e-05
7.0143e-05
7.07541e-05
6.96594e-05
6.58718e-05
6.2233e-05
4.92359e-05
5.15973e-05
4.9843e-05
3.92253e-05
3.67148e-05
3.19727e-05
2.73906e-05
2.30427e-05
2.12237e-05
2.72052e-07
1.10911e-08
3.83202e-06
6.1299e-06
9.9259e-06
1.70547e-05
2.88486e-05
4.35655e-05
5.54287e-05
6.29814e-05
6.75032e-05
6.92808e-05
6.98939e-05
6.96524e-05
6.98293e-05
6.45809e-05
6.16097e-05
6.30444e-05
6.38988e-05
6.39138e-05
6.18929e-05
6.11938e-05
5.9667e-05
4.98966e-05
4.13871e-05
5.08193e-05
5.16165e-05
3.93007e-05
4.14966e-05
3.90283e-05
3.38496e-05
3.15345e-05
2.85172e-05
2.84628e-05
2.64799e-05
4.18322e-07
1.98695e-08
4.08746e-06
8.59419e-06
1.71372e-05
3.26399e-05
5.09145e-05
6.31517e-05
6.97468e-05
7.30295e-05
7.46088e-05
7.57597e-05
7.66127e-05
7.43618e-05
6.84545e-05
6.16816e-05
5.46884e-05
5.0028e-05
4.71205e-05
4.41622e-05
4.27745e-05
4.084e-05
3.62004e-05
3.12658e-05
3.70056e-05
4.16568e-05
3.63998e-05
3.7017e-05
3.4635e-05
3.24084e-05
3.08905e-05
2.89115e-05
2.81552e-05
3.3805e-05
2.16694e-05
4.31549e-07
4.47919e-08
4.27825e-06
1.0219e-05
2.08439e-05
3.69555e-05
5.30771e-05
6.37387e-05
6.94946e-05
7.25576e-05
7.27011e-05
6.92866e-05
6.22123e-05
5.74423e-05
5.44485e-05
5.15615e-05
4.76435e-05
4.39324e-05
4.04899e-05
3.79843e-05
3.56942e-05
3.21996e-05
2.70776e-05
3.0385e-05
3.74844e-05
3.46853e-05
3.3544e-05
3.27791e-05
3.23145e-05
3.0873e-05
2.83975e-05
2.56889e-05
2.59811e-05
3.50418e-05
1.74611e-05
4.29252e-07
8.86516e-08
4.99811e-06
1.30462e-05
2.84357e-05
4.99608e-05
6.61949e-05
7.44598e-05
7.82477e-05
7.83347e-05
7.56603e-05
7.09142e-05
6.47847e-05
5.84323e-05
5.23166e-05
4.61322e-05
4.04685e-05
3.6049e-05
3.27303e-05
3.04796e-05
2.86667e-05
2.70005e-05
3.04647e-05
3.41951e-05
3.13612e-05
3.17578e-05
3.36842e-05
3.46018e-05
3.34663e-05
3.03214e-05
2.6363e-05
2.35302e-05
2.50645e-05
3.70735e-05
1.42839e-05
4.17359e-07
1.35271e-07
5.63379e-06
1.51656e-05
3.24225e-05
5.31057e-05
6.77604e-05
7.50327e-05
7.72387e-05
7.56545e-05
7.14978e-05
6.58099e-05
5.93189e-05
5.21188e-05
4.58199e-05
4.08342e-05
3.66382e-05
3.27188e-05
3.00105e-05
2.83673e-05
2.7965e-05
2.8671e-05
3.10662e-05
3.20719e-05
3.14014e-05
3.25645e-05
3.40503e-05
3.39808e-05
3.16527e-05
2.76834e-05
2.34833e-05
2.0892e-05
2.3121e-05
3.66019e-05
1.24022e-05
3.97335e-07
1.62242e-07
6.18412e-06
1.66509e-05
3.56235e-05
5.70096e-05
7.04389e-05
7.61418e-05
7.6698e-05
7.38335e-05
6.8945e-05
6.30756e-05
5.69849e-05
5.10765e-05
4.52423e-05
3.98735e-05
3.53589e-05
3.1626e-05
2.85136e-05
2.63314e-05
2.57162e-05
2.7344e-05
3.00428e-05
3.20466e-05
3.32836e-05
3.37506e-05
3.40238e-05
3.33663e-05
3.02743e-05
2.54248e-05
2.0815e-05
1.87194e-05
2.18078e-05
3.62897e-05
1.09953e-05
3.82502e-07
1.6456e-07
6.24181e-06
1.68155e-05
3.61398e-05
5.74331e-05
7.00657e-05
7.5109e-05
7.55272e-05
7.29832e-05
6.85619e-05
6.31472e-05
5.71978e-05
5.10387e-05
4.51704e-05
3.99769e-05
3.5555e-05
3.20414e-05
2.91474e-05
2.66862e-05
2.4841e-05
2.41353e-05
2.53518e-05
2.8188e-05
3.12433e-05
3.3764e-05
3.41707e-05
3.21082e-05
2.81878e-05
2.35967e-05
1.93453e-05
1.7306e-05
2.05272e-05
3.4835e-05
1.02478e-05
3.815e-07
1.5985e-07
6.18852e-06
1.66966e-05
3.61819e-05
5.81661e-05
7.10242e-05
7.59974e-05
7.63372e-05
7.37372e-05
6.942e-05
6.45904e-05
5.89814e-05
5.25053e-05
4.68413e-05
4.23106e-05
3.80906e-05
3.41972e-05
3.11913e-05
2.85844e-05
2.59075e-05
2.3698e-05
2.4571e-05
2.62861e-05
2.68341e-05
2.98365e-05
3.239e-05
3.18227e-05
2.80932e-05
2.26035e-05
1.80537e-05
1.6261e-05
1.95334e-05
3.33876e-05
9.7438e-06
3.91819e-07
1.60669e-07
6.0659e-06
1.62285e-05
3.54799e-05
5.8043e-05
7.16735e-05
7.76082e-05
7.90934e-05
7.72093e-05
7.25691e-05
6.48818e-05
5.64708e-05
5.07331e-05
4.7243e-05
4.47547e-05
4.26215e-05
3.95321e-05
3.50384e-05
3.06894e-05
2.71782e-05
2.42167e-05
2.22903e-05
2.4373e-05
2.6845e-05
2.67735e-05
2.91912e-05
2.98759e-05
2.70239e-05
2.21122e-05
1.7585e-05
1.56147e-05
1.87045e-05
3.21745e-05
9.42347e-06
4.22756e-07
1.74545e-07
6.01374e-06
1.62843e-05
3.62904e-05
5.97485e-05
7.32822e-05
7.86229e-05
7.91138e-05
7.57377e-05
6.99665e-05
6.25495e-05
5.59735e-05
5.16855e-05
4.84823e-05
4.60444e-05
4.43676e-05
4.25809e-05
3.95067e-05
3.51175e-05
3.01786e-05
2.54459e-05
2.20809e-05
2.33391e-05
2.53709e-05
2.4827e-05
2.633e-05
2.69969e-05
2.51841e-05
2.09636e-05
1.68026e-05
1.50717e-05
1.82293e-05
3.17799e-05
9.06704e-06
4.47867e-07
2.00672e-07
6.1578e-06
1.69173e-05
3.81797e-05
6.18165e-05
7.4191e-05
7.83983e-05
7.75701e-05
7.27408e-05
6.56562e-05
5.98088e-05
5.6084e-05
5.26266e-05
4.94715e-05
4.7158e-05
4.54195e-05
4.42937e-05
4.27879e-05
3.92427e-05
3.38707e-05
2.79998e-05
2.34672e-05
2.31548e-05
2.32053e-05
2.21364e-05
2.35042e-05
2.43929e-05
2.30478e-05
1.96418e-05
1.60782e-05
1.46527e-05
1.808e-05
3.19816e-05
8.72841e-06
4.63725e-07
2.26919e-07
6.27288e-06
1.7517e-05
4.00425e-05
6.36225e-05
7.46183e-05
7.71949e-05
7.46698e-05
6.95812e-05
6.38702e-05
5.92287e-05
5.52852e-05
5.19611e-05
4.9936e-05
4.88276e-05
4.80071e-05
4.6711e-05
4.47059e-05
4.16039e-05
3.69011e-05
3.11267e-05
2.59929e-05
2.44345e-05
2.27667e-05
2.06935e-05
2.12528e-05
2.19456e-05
2.10727e-05
1.8368e-05
1.53821e-05
1.42454e-05
1.79161e-05
3.21387e-05
8.45703e-06
4.77645e-07
2.53055e-07
6.45186e-06
1.83263e-05
4.22124e-05
6.55779e-05
7.53824e-05
7.68633e-05
7.35215e-05
6.82728e-05
6.33586e-05
5.91481e-05
5.54927e-05
5.29374e-05
5.15668e-05
5.09988e-05
5.07744e-05
5.06018e-05
4.95612e-05
4.65305e-05
4.15453e-05
3.51592e-05
2.88245e-05
2.401e-05
2.23613e-05
2.09367e-05
1.94607e-05
1.96348e-05
1.9026e-05
1.69299e-05
1.45649e-05
1.38824e-05
1.80226e-05
3.26307e-05
8.17241e-06
4.84803e-07
2.70888e-07
6.58619e-06
1.88031e-05
4.26107e-05
6.54717e-05
7.50067e-05
7.6111e-05
7.3127e-05
6.84771e-05
6.37794e-05
6.01135e-05
5.73656e-05
5.50155e-05
5.32863e-05
5.23829e-05
5.2138e-05
5.2022e-05
5.10823e-05
4.85496e-05
4.40538e-05
3.80031e-05
3.1573e-05
2.61273e-05
2.32441e-05
2.07083e-05
1.85706e-05
1.79943e-05
1.72884e-05
1.56523e-05
1.37998e-05
1.36171e-05
1.83783e-05
3.2924e-05
7.92841e-06
4.85796e-07
2.74626e-07
6.61281e-06
1.88665e-05
4.24613e-05
6.45068e-05
7.39731e-05
7.55829e-05
7.34552e-05
6.98508e-05
6.6018e-05
6.25845e-05
5.96243e-05
5.70763e-05
5.48977e-05
5.32089e-05
5.21476e-05
5.16403e-05
5.1266e-05
5.00639e-05
4.70357e-05
4.18918e-05
3.53884e-05
2.90964e-05
2.50182e-05
2.10961e-05
1.79517e-05
1.67132e-05
1.57825e-05
1.44131e-05
1.30935e-05
1.34165e-05
1.8794e-05
3.29144e-05
7.73832e-06
4.87594e-07
2.73149e-07
6.60091e-06
1.89098e-05
4.22106e-05
6.3551e-05
7.28443e-05
7.4985e-05
7.38621e-05
7.13453e-05
6.83178e-05
6.51887e-05
6.21193e-05
5.92255e-05
5.6572e-05
5.4221e-05
5.22727e-05
5.08391e-05
4.98912e-05
4.90437e-05
4.7398e-05
4.39187e-05
3.83142e-05
3.17886e-05
2.72125e-05
2.29408e-05
1.85958e-05
1.61196e-05
1.47621e-05
1.35051e-05
1.25632e-05
1.33262e-05
1.92733e-05
3.27033e-05
7.60561e-06
4.9233e-07
2.69349e-07
6.5222e-06
1.86159e-05
4.15803e-05
6.27161e-05
7.22154e-05
7.50165e-05
7.45943e-05
7.26317e-05
7.00569e-05
6.7241e-05
6.43366e-05
6.13972e-05
5.84652e-05
5.56009e-05
5.29145e-05
5.05516e-05
4.8659e-05
4.72541e-05
4.58833e-05
4.3648e-05
3.97285e-05
3.41881e-05
2.82357e-05
2.45269e-05
2.01089e-05
1.60666e-05
1.40994e-05
1.27714e-05
1.2074e-05
1.31732e-05
1.95309e-05
3.24784e-05
7.53374e-06
5.02304e-07
2.64543e-07
6.4508e-06
1.82346e-05
4.06597e-05
6.17813e-05
7.19193e-05
7.53908e-05
7.56256e-05
7.42112e-05
7.19942e-05
6.93806e-05
6.6565e-05
6.3629e-05
6.06289e-05
5.75837e-05
5.4514e-05
5.15025e-05
4.87019e-05
4.62865e-05
4.42388e-05
4.21026e-05
3.90963e-05
3.47174e-05
2.94827e-05
2.62383e-05
2.13944e-05
1.64138e-05
1.38301e-05
1.22725e-05
1.16594e-05
1.29817e-05
1.96449e-05
3.23062e-05
7.49478e-06
5.16873e-07
2.62917e-07
6.43704e-06
1.79895e-05
3.9611e-05
6.10915e-05
7.22112e-05
7.64666e-05
7.73035e-05
7.63135e-05
7.4386e-05
7.19842e-05
6.92868e-05
6.63779e-05
6.33144e-05
6.01322e-05
5.68387e-05
5.34516e-05
5.00487e-05
4.67936e-05
4.38433e-05
4.10863e-05
3.81069e-05
3.43594e-05
2.97703e-05
2.7128e-05
2.23297e-05
1.68149e-05
1.37723e-05
1.19516e-05
1.13242e-05
1.27983e-05
1.97496e-05
3.22453e-05
7.46946e-06
5.32468e-07
2.62845e-07
6.36999e-06
1.76863e-05
3.93174e-05
6.11149e-05
7.25333e-05
7.73664e-05
7.87778e-05
7.82993e-05
7.68075e-05
7.47602e-05
7.23418e-05
6.96305e-05
6.66525e-05
6.34376e-05
6.00043e-05
5.63632e-05
5.2545e-05
4.86339e-05
4.48147e-05
4.11725e-05
3.75874e-05
3.37781e-05
2.94069e-05
2.7076e-05
2.25235e-05
1.69194e-05
1.36916e-05
1.17218e-05
1.11008e-05
1.27643e-05
2.016e-05
3.21501e-05
7.43685e-06
5.44056e-07
2.64255e-07
6.30888e-06
1.75679e-05
3.91864e-05
6.11087e-05
7.27081e-05
7.77916e-05
7.95422e-05
7.94005e-05
7.82649e-05
7.65887e-05
7.45599e-05
7.22337e-05
6.96088e-05
6.66597e-05
6.3365e-05
5.97159e-05
5.57181e-05
5.14149e-05
4.69259e-05
4.23859e-05
3.77871e-05
3.314e-05
2.89127e-05
2.6822e-05
2.22593e-05
1.67355e-05
1.34904e-05
1.15171e-05
1.09851e-05
1.28757e-05
2.07471e-05
3.19388e-05
7.40071e-06
5.49978e-07
2.66428e-07
6.29072e-06
1.74258e-05
3.86869e-05
6.07059e-05
7.26877e-05
7.79888e-05
7.98776e-05
7.98292e-05
7.88287e-05
7.73456e-05
7.55966e-05
7.36467e-05
7.15004e-05
6.9051e-05
6.6214e-05
6.29141e-05
5.9084e-05
5.46822e-05
4.97958e-05
4.46224e-05
3.9256e-05
3.38587e-05
2.90891e-05
2.67063e-05
2.19794e-05
1.65063e-05
1.33248e-05
1.13858e-05
1.09074e-05
1.2896e-05
2.09672e-05
3.19623e-05
7.40519e-06
5.60062e-07
2.73306e-07
6.29651e-06
1.75172e-05
3.89339e-05
6.09486e-05
7.30691e-05
7.85723e-05
8.05864e-05
8.05567e-05
7.95737e-05
7.81441e-05
7.65395e-05
7.4847e-05
7.30732e-05
7.10788e-05
6.87465e-05
6.58184e-05
6.23436e-05
5.81807e-05
5.32103e-05
4.76292e-05
4.15973e-05
3.53392e-05
2.95518e-05
2.63215e-05
2.24558e-05
1.67328e-05
1.30671e-05
1.12644e-05
1.08264e-05
1.28432e-05
2.10518e-05
3.21894e-05
7.42795e-06
5.71541e-07
2.82316e-07
6.30584e-06
1.76304e-05
3.94004e-05
6.14485e-05
7.34236e-05
7.89518e-05
8.10741e-05
8.11449e-05
8.02815e-05
7.89718e-05
7.74727e-05
7.5857e-05
7.43859e-05
7.29701e-05
7.13749e-05
6.93167e-05
6.61381e-05
6.18445e-05
5.67884e-05
5.10719e-05
4.47655e-05
3.82347e-05
3.18051e-05
2.54252e-05
2.17955e-05
1.72497e-05
1.29777e-05
1.10808e-05
1.07009e-05
1.28322e-05
2.13117e-05
3.23004e-05
7.43338e-06
5.80136e-07
2.92288e-07
6.33272e-06
1.77996e-05
3.99271e-05
6.20112e-05
7.37871e-05
7.91614e-05
8.11702e-05
8.11989e-05
8.0353e-05
7.91286e-05
7.77913e-05
7.65915e-05
7.56586e-05
7.47128e-05
7.32516e-05
7.13554e-05
6.89951e-05
6.57467e-05
6.1158e-05
5.51589e-05
4.84077e-05
4.12593e-05
3.37708e-05
2.63252e-05
2.21558e-05
1.7289e-05
1.28458e-05
1.09425e-05
1.06272e-05
1.28475e-05
2.15806e-05
3.25432e-05
7.46604e-06
5.88633e-07
3.01871e-07
6.36942e-06
1.79814e-05
4.0371e-05
6.22458e-05
7.36863e-05
7.88415e-05
8.07236e-05
8.08219e-05
7.99823e-05
7.8803e-05
7.79204e-05
7.73133e-05
7.6592e-05
7.57733e-05
7.4838e-05
7.33224e-05
7.09987e-05
6.79176e-05
6.40483e-05
5.9229e-05
5.28026e-05
4.47056e-05
3.59436e-05
2.74886e-05
2.26439e-05
1.73077e-05
1.2741e-05
1.08134e-05
1.05565e-05
1.29446e-05
2.21058e-05
3.25462e-05
7.45675e-06
5.92387e-07
3.12011e-07
6.41199e-06
1.8218e-05
4.10563e-05
6.28349e-05
7.38809e-05
7.87251e-05
8.03815e-05
8.0305e-05
7.95127e-05
7.89271e-05
7.84103e-05
7.76721e-05
7.69735e-05
7.64261e-05
7.59848e-05
7.52964e-05
7.38909e-05
7.13238e-05
6.7424e-05
6.206e-05
5.55018e-05
4.76124e-05
3.84994e-05
2.92011e-05
2.34577e-05
1.74196e-05
1.26377e-05
1.07005e-05
1.05678e-05
1.32047e-05
2.29169e-05
3.2459e-05
7.46151e-06
5.92468e-07
3.2309e-07
6.46604e-06
1.84922e-05
4.17706e-05
6.33186e-05
7.39199e-05
7.85038e-05
7.99686e-05
7.9883e-05
7.95207e-05
7.90106e-05
7.81513e-05
7.74302e-05
7.70043e-05
7.67986e-05
7.66358e-05
7.6175e-05
7.51026e-05
7.31665e-05
7.04575e-05
6.66039e-05
6.03279e-05
5.12303e-05
4.0801e-05
3.07006e-05
2.41769e-05
1.75808e-05
1.26407e-05
1.06733e-05
1.06342e-05
1.34996e-05
2.37539e-05
3.2365e-05
7.45367e-06
5.8904e-07
3.33908e-07
6.51085e-06
1.87372e-05
4.24169e-05
6.36554e-05
7.3704e-05
7.78688e-05
7.90969e-05
7.93019e-05
7.89292e-05
7.81374e-05
7.76321e-05
7.74179e-05
7.73946e-05
7.74306e-05
7.7354e-05
7.68448e-05
7.55786e-05
7.3402e-05
7.08117e-05
6.7901e-05
6.32083e-05
5.52006e-05
4.41571e-05
3.2911e-05
2.52704e-05
1.79589e-05
1.27577e-05
1.06517e-05
1.06833e-05
1.37986e-05
2.45247e-05
3.22586e-05
7.45734e-06
5.85106e-07
3.42976e-07
6.56245e-06
1.90019e-05
4.30746e-05
6.40199e-05
7.35309e-05
7.72553e-05
7.8343e-05
7.82177e-05
7.75321e-05
7.70697e-05
7.69464e-05
7.70933e-05
7.73803e-05
7.76364e-05
7.76534e-05
7.71117e-05
7.56979e-05
7.32956e-05
7.05735e-05
6.78815e-05
6.3876e-05
5.6978e-05
4.69975e-05
3.57658e-05
2.73602e-05
1.90837e-05
1.3188e-05
1.07865e-05
1.076e-05
1.39235e-05
2.48179e-05
3.28325e-05
7.52162e-06
5.86465e-07
3.52088e-07
6.59921e-06
1.92351e-05
4.37099e-05
6.43016e-05
7.32562e-05
7.65311e-05
7.71655e-05
7.68512e-05
7.62821e-05
7.60754e-05
7.63294e-05
7.68835e-05
7.75477e-05
7.80952e-05
7.82686e-05
7.77349e-05
7.61758e-05
7.3506e-05
7.05416e-05
6.78387e-05
6.42077e-05
5.81108e-05
4.91269e-05
3.84602e-05
3.01449e-05
2.08027e-05
1.39077e-05
1.10287e-05
1.08412e-05
1.38982e-05
2.45244e-05
3.36739e-05
7.58366e-06
5.99168e-07
3.60914e-07
6.63824e-06
1.94403e-05
4.42271e-05
6.4491e-05
7.298e-05
7.591e-05
7.61684e-05
7.55996e-05
7.50581e-05
7.50506e-05
7.56334e-05
7.66689e-05
7.78227e-05
7.88055e-05
7.92952e-05
7.89256e-05
7.73551e-05
7.45091e-05
7.13167e-05
6.8477e-05
6.48806e-05
5.90443e-05
5.04984e-05
4.01837e-05
3.22415e-05
2.25305e-05
1.48345e-05
1.14376e-05
1.08711e-05
1.38805e-05
2.52895e-05
3.33197e-05
7.56135e-06
6.02669e-07
3.70597e-07
6.68163e-06
1.96615e-05
4.47678e-05
6.46446e-05
7.25623e-05
7.50001e-05
7.49338e-05
7.42383e-05
7.37333e-05
7.39029e-05
7.48301e-05
7.63264e-05
7.80542e-05
7.95676e-05
8.04604e-05
8.03351e-05
7.87794e-05
7.57572e-05
7.22723e-05
6.91276e-05
6.53164e-05
5.94464e-05
5.10041e-05
4.05789e-05
3.19642e-05
2.23712e-05
1.50224e-05
1.17118e-05
1.12896e-05
1.48018e-05
2.75422e-05
3.23758e-05
7.53059e-06
5.92796e-07
3.79386e-07
6.71788e-06
1.9852e-05
4.52225e-05
6.46842e-05
7.2008e-05
7.39674e-05
7.35556e-05
7.25186e-05
7.19704e-05
7.23674e-05
7.36806e-05
7.56297e-05
7.78864e-05
7.99835e-05
8.13413e-05
8.14994e-05
8.00157e-05
7.68569e-05
7.30672e-05
6.94907e-05
6.51778e-05
5.8923e-05
5.04619e-05
4.02306e-05
3.10471e-05
2.17652e-05
1.50067e-05
1.19798e-05
1.18519e-05
1.58521e-05
2.93329e-05
3.1861e-05
7.45792e-06
5.75205e-07
3.8723e-07
6.74707e-06
2.00128e-05
4.56214e-05
6.46603e-05
7.14598e-05
7.28665e-05
7.19358e-05
7.06956e-05
7.01103e-05
7.06558e-05
7.23151e-05
7.47573e-05
7.75102e-05
8.00751e-05
8.18398e-05
8.22353e-05
8.08e-05
7.75148e-05
7.34523e-05
6.94692e-05
6.46327e-05
5.7909e-05
4.92596e-05
4.11642e-05
3.19267e-05
2.19412e-05
1.52813e-05
1.2247e-05
1.22301e-05
1.63552e-05
2.99142e-05
3.21679e-05
7.49492e-06
5.74952e-07
3.94085e-07
6.7687e-06
2.01395e-05
4.58864e-05
6.44987e-05
7.07421e-05
7.16764e-05
7.04324e-05
6.89642e-05
6.82895e-05
6.8916e-05
7.08353e-05
7.37093e-05
7.70067e-05
8.01002e-05
8.24301e-05
8.3258e-05
8.20622e-05
7.8824e-05
7.46955e-05
7.06755e-05
6.58612e-05
5.90373e-05
5.02067e-05
4.25938e-05
3.30261e-05
2.30195e-05
1.62111e-05
1.26325e-05
1.23538e-05
1.66016e-05
3.08675e-05
3.23405e-05
7.53858e-06
5.81886e-07
4.00227e-07
6.7891e-06
2.02421e-05
4.60356e-05
6.42112e-05
6.99975e-05
7.06468e-05
6.91127e-05
6.73694e-05
6.65643e-05
6.72122e-05
6.93237e-05
7.25762e-05
7.64217e-05
8.01693e-05
8.30687e-05
8.44668e-05
8.36923e-05
8.0652e-05
7.6577e-05
7.26265e-05
6.79083e-05
6.08923e-05
5.12144e-05
4.23907e-05
3.21113e-05
2.28243e-05
1.67266e-05
1.32233e-05
1.29124e-05
1.76173e-05
3.31065e-05
3.14562e-05
7.53494e-06
5.81313e-07
4.0477e-07
6.79396e-06
2.03003e-05
4.61368e-05
6.38428e-05
6.93513e-05
6.95719e-05
6.77386e-05
6.5784e-05
6.48385e-05
6.5431e-05
6.76198e-05
7.11296e-05
7.54192e-05
7.97458e-05
8.32644e-05
8.51876e-05
8.48535e-05
8.20107e-05
7.78315e-05
7.36646e-05
6.88447e-05
6.17909e-05
5.15995e-05
4.09055e-05
3.02204e-05
2.17751e-05
1.64488e-05
1.36245e-05
1.37369e-05
1.91912e-05
3.55193e-05
3.05908e-05
7.44812e-06
5.60187e-07
4.06999e-07
6.79547e-06
2.03208e-05
4.61047e-05
6.35857e-05
6.87218e-05
6.86019e-05
6.65138e-05
6.43144e-05
6.31514e-05
6.35618e-05
6.5652e-05
6.92197e-05
7.37713e-05
7.85481e-05
8.26148e-05
8.50179e-05
8.50252e-05
8.24192e-05
7.81669e-05
7.37684e-05
6.8799e-05
6.19357e-05
5.2273e-05
4.13897e-05
3.03187e-05
2.16283e-05
1.63628e-05
1.38514e-05
1.42819e-05
1.98974e-05
3.62408e-05
3.08152e-05
7.45515e-06
5.55143e-07
4.08279e-07
6.78041e-06
2.0297e-05
4.60173e-05
6.32402e-05
6.80387e-05
6.76891e-05
6.54122e-05
6.30495e-05
6.16821e-05
6.18383e-05
6.36938e-05
6.71551e-05
7.18214e-05
7.69659e-05
8.15973e-05
8.46065e-05
8.50551e-05
8.27471e-05
7.85951e-05
7.4087e-05
6.89713e-05
6.21256e-05
5.31437e-05
4.38452e-05
3.26165e-05
2.26406e-05
1.66166e-05
1.39329e-05
1.44431e-05
2.02013e-05
3.67023e-05
3.15963e-05
7.5419e-06
5.64515e-07
4.09605e-07
6.76634e-06
2.02418e-05
4.5873e-05
6.27872e-05
6.73768e-05
6.69339e-05
6.46175e-05
6.21676e-05
6.05984e-05
6.04389e-05
6.19456e-05
6.51588e-05
6.98099e-05
7.52601e-05
8.05156e-05
8.43557e-05
8.56373e-05
8.38502e-05
7.97474e-05
7.52077e-05
7.0076e-05
6.3071e-05
5.40078e-05
4.56426e-05
3.49008e-05
2.46485e-05
1.78941e-05
1.44528e-05
1.45535e-05
2.0012e-05
3.63369e-05
3.23631e-05
7.6218e-06
5.82489e-07
4.09831e-07
6.74513e-06
2.02168e-05
4.57452e-05
6.23413e-05
6.68281e-05
6.63916e-05
6.40844e-05
6.15732e-05
5.97994e-05
5.92817e-05
6.03264e-05
6.311e-05
6.75208e-05
7.30605e-05
7.8819e-05
8.34945e-05
8.57349e-05
8.4688e-05
8.07825e-05
7.61537e-05
7.10902e-05
6.41944e-05
5.47018e-05
4.50561e-05
3.42376e-05
2.48104e-05
1.86403e-05
1.51856e-05
1.51982e-05
2.12225e-05
3.87181e-05
3.13052e-05
7.58152e-06
5.77306e-07
4.08057e-07
6.72238e-06
2.015e-05
4.55012e-05
6.19571e-05
6.63649e-05
6.59023e-05
6.36183e-05
6.1101e-05
5.91523e-05
5.82061e-05
5.8616e-05
6.0819e-05
6.47287e-05
6.98997e-05
7.57493e-05
8.09637e-05
8.40133e-05
8.37092e-05
8.00987e-05
7.53486e-05
7.03509e-05
6.41094e-05
5.59478e-05
4.47507e-05
3.32271e-05
2.4481e-05
1.87192e-05
1.57541e-05
1.60925e-05
2.23238e-05
3.96557e-05
3.116e-05
7.55578e-06
5.65713e-07
4.0567e-07
6.68728e-06
2.00728e-05
4.53473e-05
6.15845e-05
6.59025e-05
6.54886e-05
6.33313e-05
6.09342e-05
5.90901e-05
5.79383e-05
5.75183e-05
5.8285e-05
6.12057e-05
6.62308e-05
7.20306e-05
7.75031e-05
8.12172e-05
8.17454e-05
7.8793e-05
7.43092e-05
6.92882e-05
6.36538e-05
5.74614e-05
4.67743e-05
3.45958e-05
2.52224e-05
1.90159e-05
1.59722e-05
1.64101e-05
2.27068e-05
4.00765e-05
3.16883e-05
7.61006e-06
5.69834e-07
4.04853e-07
6.66045e-06
1.99999e-05
4.50961e-05
6.11904e-05
6.55324e-05
6.52618e-05
6.32934e-05
6.10721e-05
5.91606e-05
5.76745e-05
5.69665e-05
5.73722e-05
5.91104e-05
6.27726e-05
6.82647e-05
7.41005e-05
7.85841e-05
8.01761e-05
7.82711e-05
7.43081e-05
6.91007e-05
6.33022e-05
5.9112e-05
4.97173e-05
3.7644e-05
2.79955e-05
2.04772e-05
1.65681e-05
1.6625e-05
2.23471e-05
3.90403e-05
3.37179e-05
7.79994e-06
6.08502e-07
4.04683e-07
6.64016e-06
1.99488e-05
4.48556e-05
6.08073e-05
6.5282e-05
6.5249e-05
6.35385e-05
6.14901e-05
5.96578e-05
5.8057e-05
5.68776e-05
5.64942e-05
5.75633e-05
6.03011e-05
6.48895e-05
7.06361e-05
7.57681e-05
7.85219e-05
7.79928e-05
7.51135e-05
7.01345e-05
6.34094e-05
5.82539e-05
4.87484e-05
3.77422e-05
2.93402e-05
2.23556e-05
1.77986e-05
1.71338e-05
2.32752e-05
4.19637e-05
3.21498e-05
7.75663e-06
6.14617e-07
4.01997e-07
6.61236e-06
1.98472e-05
4.45439e-05
6.0406e-05
6.50275e-05
6.52387e-05
6.3782e-05
6.19497e-05
6.02878e-05
5.86507e-05
5.7156e-05
5.62089e-05
5.61529e-05
5.75986e-05
6.11286e-05
6.63907e-05
7.16256e-05
7.52413e-05
7.61773e-05
7.4938e-05
7.09836e-05
6.29888e-05
5.44248e-05
4.43997e-05
3.50536e-05
2.79576e-05
2.22881e-05
1.88387e-05
1.93279e-05
2.75429e-05
4.61881e-05
3.09774e-05
7.67094e-06
5.94593e-07
3.95352e-07
6.56711e-06
1.96932e-05
4.42325e-05
6.00519e-05
6.47485e-05
6.51514e-05
6.39464e-05
6.23301e-05
6.07512e-05
5.92592e-05
5.74463e-05
5.59153e-05
5.52838e-05
5.57203e-05
5.73807e-05
6.09301e-05
6.57948e-05
6.9718e-05
7.1645e-05
7.18664e-05
6.9512e-05
6.25497e-05
5.15355e-05
4.06035e-05
3.23086e-05
2.63637e-05
2.21525e-05
2.01209e-05
2.1832e-05
3.13675e-05
4.89665e-05
2.94489e-05
7.56301e-06
5.55009e-07
3.8489e-07
6.5033e-06
1.95043e-05
4.39267e-05
5.97795e-05
6.4513e-05
6.50301e-05
6.40375e-05
6.26531e-05
6.1204e-05
5.9767e-05
5.77497e-05
5.56965e-05
5.45963e-05
5.41871e-05
5.43211e-05
5.60202e-05
5.95618e-05
6.29628e-05
6.49148e-05
6.58816e-05
6.61117e-05
6.22546e-05
5.26845e-05
4.11961e-05
3.17079e-05
2.55662e-05
2.20715e-05
2.07617e-05
2.31906e-05
3.2828e-05
4.94057e-05
2.99966e-05
7.6048e-06
5.47593e-07
3.74961e-07
6.4347e-06
1.93936e-05
4.37229e-05
5.95695e-05
6.43103e-05
6.49402e-05
6.40332e-05
6.29519e-05
6.1873e-05
6.02722e-05
5.82957e-05
5.61996e-05
5.3996e-05
5.24901e-05
5.23198e-05
5.28211e-05
5.3774e-05
5.54215e-05
5.75006e-05
6.03464e-05
6.41748e-05
6.37175e-05
5.55518e-05
4.46466e-05
3.43285e-05
2.69741e-05
2.25806e-05
2.08479e-05
2.28641e-05
3.18999e-05
4.91279e-05
3.07298e-05
7.69747e-06
5.58781e-07
3.7207e-07
6.39365e-06
1.9344e-05
4.37674e-05
5.94437e-05
6.41384e-05
6.48633e-05
6.43453e-05
6.33482e-05
6.21474e-05
6.09174e-05
5.92841e-05
5.71043e-05
5.46272e-05
5.21786e-05
5.02813e-05
4.95484e-05
5.0042e-05
5.09175e-05
5.16687e-05
5.38255e-05
6.08815e-05
6.36644e-05
5.79304e-05
5.11422e-05
4.1202e-05
3.06342e-05
2.38087e-05
2.10895e-05
2.23754e-05
3.06756e-05
4.6978e-05
3.6148e-05
8.23221e-06
6.41143e-07
3.76676e-07
6.37471e-06
1.95564e-05
4.4079e-05
5.93615e-05
6.4082e-05
6.50695e-05
6.48353e-05
6.41583e-05
6.33388e-05
6.22982e-05
6.08485e-05
5.87223e-05
5.60115e-05
5.29963e-05
5.01792e-05
4.80454e-05
4.6897e-05
4.6784e-05
4.71455e-05
4.92708e-05
5.80923e-05
6.26316e-05
5.76968e-05
5.46585e-05
4.86468e-05
3.84562e-05
2.7957e-05
2.25683e-05
2.21819e-05
2.70777e-05
4.26557e-05
3.81107e-05
8.41452e-06
7.21502e-07
3.94983e-07
6.49162e-06
2.00121e-05
4.43439e-05
5.93441e-05
6.42016e-05
6.54502e-05
6.53407e-05
6.49548e-05
6.45379e-05
6.39872e-05
6.3042e-05
6.14219e-05
5.88421e-05
5.52797e-05
5.12722e-05
4.75159e-05
4.47708e-05
4.34732e-05
4.40478e-05
4.62344e-05
5.37478e-05
5.73786e-05
5.39859e-05
5.26736e-05
4.84137e-05
4.0421e-05
3.1344e-05
2.45294e-05
2.33982e-05
3.20256e-05
5.2011e-05
3.43762e-05
8.32336e-06
7.26855e-07
4.10778e-07
6.60079e-06
2.02215e-05
4.47346e-05
5.93193e-05
6.4308e-05
6.58876e-05
6.61984e-05
6.61474e-05
6.59772e-05
6.55937e-05
6.47259e-05
6.30748e-05
6.04364e-05
5.67586e-05
5.223e-05
4.73915e-05
4.30767e-05
4.03636e-05
3.9842e-05
4.15556e-05
4.56952e-05
4.81768e-05
4.80171e-05
4.71042e-05
4.33275e-05
3.71968e-05
3.11884e-05
2.82518e-05
3.14374e-05
4.37446e-05
5.5905e-05
3.16943e-05
8.03085e-06
6.58164e-07
4.13212e-07
6.68417e-06
2.05537e-05
4.48954e-05
5.93213e-05
6.42729e-05
6.5811e-05
6.61047e-05
6.60929e-05
6.60878e-05
6.59194e-05
6.52149e-05
6.3554e-05
6.07169e-05
5.66919e-05
5.17161e-05
4.62098e-05
4.07744e-05
3.64705e-05
3.61521e-05
3.84101e-05
3.87786e-05
3.96723e-05
4.1846e-05
4.22268e-05
4.02159e-05
3.66824e-05
3.37142e-05
3.40711e-05
4.02179e-05
5.37126e-05
5.8304e-05
2.78187e-05
7.65956e-06
5.44525e-07
4.03584e-07
6.64554e-06
2.04205e-05
4.491e-05
5.93197e-05
6.40503e-05
6.53137e-05
6.54037e-05
6.52917e-05
6.52817e-05
6.52734e-05
6.49106e-05
6.37467e-05
6.13917e-05
5.75719e-05
5.23968e-05
4.63817e-05
4.03284e-05
3.56417e-05
3.50432e-05
3.33808e-05
3.15553e-05
3.31174e-05
3.55911e-05
3.73876e-05
3.75752e-05
3.65787e-05
3.62922e-05
3.91286e-05
4.77112e-05
5.99688e-05
5.82571e-05
2.67039e-05
7.48283e-06
4.88745e-07
3.88242e-07
6.58054e-06
2.0228e-05
4.48654e-05
5.93331e-05
6.38219e-05
6.47877e-05
6.46757e-05
6.44931e-05
6.45401e-05
6.46779e-05
6.44635e-05
6.34172e-05
6.11818e-05
5.76326e-05
5.29502e-05
4.77107e-05
4.23932e-05
3.75124e-05
3.54688e-05
3.25912e-05
3.00831e-05
3.09677e-05
3.26066e-05
3.40403e-05
3.49346e-05
3.55335e-05
3.68958e-05
4.14998e-05
5.05828e-05
6.00164e-05
5.83043e-05
2.77561e-05
7.62115e-06
4.83865e-07
3.68982e-07
6.47209e-06
2.00155e-05
4.49683e-05
5.94232e-05
6.35658e-05
6.4177e-05
6.38228e-05
6.35072e-05
6.35397e-05
6.38523e-05
6.40087e-05
6.32923e-05
6.1221e-05
5.76603e-05
5.29948e-05
4.79803e-05
4.33188e-05
3.93502e-05
3.68156e-05
3.39367e-05
3.18052e-05
3.13751e-05
3.13535e-05
3.15177e-05
3.21226e-05
3.35711e-05
3.62542e-05
4.07686e-05
4.81367e-05
5.76011e-05
5.89511e-05
2.8355e-05
7.70389e-06
4.90774e-07
3.6202e-07
6.41151e-06
1.99631e-05
4.53585e-05
5.95719e-05
6.32514e-05
6.36427e-05
6.326e-05
6.29218e-05
6.28809e-05
6.31327e-05
6.3463e-05
6.32725e-05
6.16711e-05
5.82569e-05
5.31582e-05
4.75769e-05
4.30944e-05
4.04292e-05
3.95517e-05
4.01578e-05
3.87161e-05
3.53573e-05
3.34675e-05
3.21786e-05
3.14851e-05
3.15199e-05
3.266e-05
3.57523e-05
4.22384e-05
5.32218e-05
5.90748e-05
3.23288e-05
8.2911e-06
5.74222e-07
3.63914e-07
6.38563e-06
2.02375e-05
4.5849e-05
5.96574e-05
6.31242e-05
6.33823e-05
6.29793e-05
6.27692e-05
6.2968e-05
6.34299e-05
6.38394e-05
6.36935e-05
6.22015e-05
5.86864e-05
5.31072e-05
4.69945e-05
4.21294e-05
3.96468e-05
4.02821e-05
4.59911e-05
4.93228e-05
4.46892e-05
4.01582e-05
3.67714e-05
3.45878e-05
3.24019e-05
3.10964e-05
3.2086e-05
3.82996e-05
4.90111e-05
5.65427e-05
3.98186e-05
9.06448e-06
6.96438e-07
3.86599e-07
6.5119e-06
2.09513e-05
4.70359e-05
5.98956e-05
6.33292e-05
6.36547e-05
6.32995e-05
6.32351e-05
6.36466e-05
6.43072e-05
6.48327e-05
6.47501e-05
6.34934e-05
5.97913e-05
5.31217e-05
4.53611e-05
4.00488e-05
3.82547e-05
4.01651e-05
4.83839e-05
5.44185e-05
5.28186e-05
5.14535e-05
4.61797e-05
3.91686e-05
3.40966e-05
3.13975e-05
3.16279e-05
3.34636e-05
3.96057e-05
5.52954e-05
4.09068e-05
9.17473e-06
7.7141e-07
4.16266e-07
6.7317e-06
2.18011e-05
4.74434e-05
6.00259e-05
6.31822e-05
6.35909e-05
6.34222e-05
6.35687e-05
6.43546e-05
6.56762e-05
6.70237e-05
6.73845e-05
6.53255e-05
6.02995e-05
5.26987e-05
4.41856e-05
3.77549e-05
3.57113e-05
3.9391e-05
4.71786e-05
5.24639e-05
5.48043e-05
5.63093e-05
5.39325e-05
4.70486e-05
3.83424e-05
3.15943e-05
2.88315e-05
3.24687e-05
4.66324e-05
6.30171e-05
3.68984e-05
9.06709e-06
7.72142e-07
4.32455e-07
6.90817e-06
2.25753e-05
4.83907e-05
5.99922e-05
6.32121e-05
6.36771e-05
6.34184e-05
6.35473e-05
6.44106e-05
6.5857e-05
6.74509e-05
6.83941e-05
6.74823e-05
6.31263e-05
5.40219e-05
4.28151e-05
3.48287e-05
3.40634e-05
3.75207e-05
4.1347e-05
4.58613e-05
5.02603e-05
5.23087e-05
5.00385e-05
4.39748e-05
3.70843e-05
3.29202e-05
3.40052e-05
4.20802e-05
5.54582e-05
6.27218e-05
3.28502e-05
8.52788e-06
6.65206e-07
4.33266e-07
6.97145e-06
2.27609e-05
4.84621e-05
5.99157e-05
6.28301e-05
6.29322e-05
6.23804e-05
6.23398e-05
6.31853e-05
6.47648e-05
6.65357e-05
6.76149e-05
6.69776e-05
6.32187e-05
5.51646e-05
4.40526e-05
3.44241e-05
3.20467e-05
3.30523e-05
3.36815e-05
3.76569e-05
4.33428e-05
4.64344e-05
4.56334e-05
4.20213e-05
3.82468e-05
3.70687e-05
4.0598e-05
5.05789e-05
6.44573e-05
6.16909e-05
2.85878e-05
8.03625e-06
5.34589e-07
4.17896e-07
6.95716e-06
2.26854e-05
4.8358e-05
5.97715e-05
6.24556e-05
6.21997e-05
6.1328e-05
6.1077e-05
6.18564e-05
6.35156e-05
6.55597e-05
6.71703e-05
6.74632e-05
6.52028e-05
5.9032e-05
4.88033e-05
3.79455e-05
3.17466e-05
3.15371e-05
3.01205e-05
3.04461e-05
3.57977e-05
3.95249e-05
4.07031e-05
4.02304e-05
3.93473e-05
4.03026e-05
4.59958e-05
5.79428e-05
6.75509e-05
5.95108e-05
2.66059e-05
7.73319e-06
4.72541e-07
3.92246e-07
6.82726e-06
2.21848e-05
4.81023e-05
5.97579e-05
6.2106e-05
6.13824e-05
6.01523e-05
5.96709e-05
6.03128e-05
6.19374e-05
6.41274e-05
6.61806e-05
6.72147e-05
6.64272e-05
6.27515e-05
5.51476e-05
4.44008e-05
3.51861e-05
3.27822e-05
2.91688e-05
2.72306e-05
3.05031e-05
3.398e-05
3.63031e-05
3.7456e-05
3.83501e-05
4.14947e-05
4.83902e-05
5.8321e-05
6.52456e-05
5.95304e-05
2.75722e-05
7.86133e-06
4.68739e-07
3.64294e-07
6.66366e-06
2.15832e-05
4.76823e-05
5.97321e-05
6.1803e-05
6.07157e-05
5.92317e-05
5.86238e-05
5.92191e-05
6.08704e-05
6.32314e-05
6.56875e-05
6.7521e-05
6.79124e-05
6.61456e-05
6.14036e-05
5.33406e-05
4.33871e-05
3.70055e-05
3.08189e-05
2.74519e-05
2.86405e-05
3.06597e-05
3.22376e-05
3.3772e-05
3.61032e-05
3.95875e-05
4.53674e-05
5.36222e-05
6.2653e-05
6.04906e-05
2.84815e-05
8.02751e-06
4.90455e-07
3.42086e-07
6.49582e-06
2.10516e-05
4.73774e-05
5.97475e-05
6.15662e-05
6.02001e-05
5.85341e-05
5.78231e-05
5.83673e-05
6.00452e-05
6.2535e-05
6.53302e-05
6.78021e-05
6.9235e-05
6.88396e-05
6.60131e-05
6.06248e-05
5.33183e-05
4.5843e-05
3.79418e-05
3.20249e-05
2.9184e-05
2.86e-05
2.96379e-05
3.13775e-05
3.33168e-05
3.58968e-05
4.02283e-05
4.76915e-05
5.78046e-05
6.08255e-05
3.21029e-05
8.43351e-06
5.68611e-07
3.28683e-07
6.37204e-06