/*--------------------------------*- C++ -*----------------------------------*\
| =========                 |                                                 |
| \\      /  F ield         | OpenFOAM: The Open Source CFD Toolbox           |
|  \\    /   O peration     | Version:  2.0.x                                 |
|   \\  /    A nd           | Web:      www.OpenFOAM.org                      |
|    \\/     M anipulation  |                                                 |
\*---------------------------------------------------------------------------*/
FoamFile
{
    version     2.0;
    format      ascii;
    class       volScalarField;
    location    "950";
    object      omega;
}
// * * * * * * * * * * * * * * * * * * * * * * * * * * * * * * * * * * * * * //

dimensions      [0 0 -1 0 0 0 0];

internalField   nonuniform List<scalar> 
78750
(
1019.5
5.62943
6.17835
6.45471
6.66354
6.86122
7.03202
7.18052
7.30714
7.41388
7.50269
7.57386
7.63229
7.67617
7.71428
7.7275
7.77378
7.81299
7.83018
7.83476
7.8282
7.81187
7.78811
7.75865
7.72155
7.68278
7.6424
7.5994
7.55251
7.50059
7.44078
7.36971
7.25954
6.8672
1089.25
1019.41
4.94896
5.44511
5.95516
6.47996
6.94708
7.34069
7.65631
7.90552
8.10215
8.25528
8.37073
8.45525
8.51257
8.55709
8.56308
8.53835
8.47982
8.41989
8.3597
8.29988
8.24068
8.18289
8.12664
8.0714
8.00946
7.93645
7.85982
7.77541
7.68237
7.58066
7.46115
7.27373
6.87071
1090.51
1019.31
5.01756
5.89462
6.7
7.37822
7.88655
8.23772
8.4751
8.63497
8.73964
8.8012
8.8285
8.82701
8.79794
8.73061
8.64917
8.56284
8.47244
8.37839
8.28173
8.18521
8.0946
8.0088
7.92477
7.8567
7.80531
7.7668
7.73393
7.69797
7.64706
7.56849
7.44975
7.25365
6.9504
1091.57
1019.37
5.52161
6.64893
7.48637
8.0334
8.36007
8.56466
8.70183
8.79491
8.85346
8.88365
8.8991
8.88362
8.82375
8.73683
8.63134
8.5112
8.3799
8.24234
8.10502
7.97296
7.84695
7.72707
7.62548
7.54665
7.48881
7.45566
7.44453
7.44491
7.44281
7.41507
7.32882
7.17691
6.95569
1091.67
1019.54
5.88785
7.0659
7.83835
8.3215
8.62793
8.83413
8.97567
9.06729
9.11405
9.11413
9.07195
8.98296
8.8717
8.74379
8.59463
8.42891
8.25641
8.08605
7.9249
7.77161
7.6363
7.52476
7.44129
7.37955
7.33337
7.30261
7.28714
7.28413
7.28398
7.26928
7.2115
7.10056
6.9287
1091.66
1019.84
6.34906
7.54574
8.2498
8.6478
8.88354
9.03309
9.1256
9.17168
9.17599
9.1501
9.07981
8.97326
8.83087
8.64325
8.42142
8.187
7.95569
7.75344
7.60406
7.48426
7.36533
7.26464
7.18557
7.13644
7.11546
7.11645
7.13034
7.14999
7.16406
7.16124
7.12025
7.03503
6.88943
1091.59
1020.17
6.65868
7.7735
8.40237
8.76452
8.99294
9.14569
9.24363
9.29364
9.29715
9.25697
9.1661
9.02905
8.84948
8.63837
8.40686
8.16566
7.92844
7.72098
7.57455
7.47283
7.38871
7.30741
7.2285
7.16446
7.12345
7.08898
7.06285
7.04816
7.05667
7.06301
7.03844
6.96934
6.83507
1091.47
1020.36
6.82431
7.90389
8.51394
8.86326
9.08267
9.22843
9.32084
9.36605
9.36818
9.3268
9.24337
9.11855
8.95318
8.74875
8.51172
8.25443
7.98934
7.74282
7.55829
7.45325
7.39577
7.3508
7.29796
7.23473
7.16673
7.11069
7.0679
7.03465
7.00541
6.99485
6.97608
6.91751
6.78713
1091.36
1020.39
6.84623
7.92978
8.54753
8.90589
9.1371
9.29716
9.40558
9.4694
9.48956
9.46857
9.4053
9.30169
9.16075
8.9865
8.78277
8.55382
8.29922
8.02122
7.73872
7.49209
7.32879
7.27732
7.26293
7.24094
7.20564
7.15906
7.10386
7.04523
6.99944
6.96236
6.92891
6.87025
6.74623
1091.36
1020.35
6.8495
7.96017
8.59668
8.96385
9.19826
9.35931
9.46815
9.53273
9.5562
9.53927
9.48095
9.3836
9.25129
9.09175
8.91376
8.72384
8.5252
8.31041
8.073
7.81597
7.56884
7.37508
7.25632
7.19007
7.15512
7.13249
7.09973
7.05213
6.99958
6.95163
6.90842
6.85243
6.7417
1091.43
1020.35
6.88299
8.02704
8.68278
9.0589
9.29782
9.4622
9.57398
9.641
9.66595
9.6507
9.5884
9.48093
9.33634
9.16627
8.98086
8.7869
8.58836
8.38258
8.16877
7.94607
7.71886
7.51054
7.34018
7.22016
7.14589
7.09465
7.05707
7.02955
6.99033
6.94793
6.90902
6.85225
6.75531
1091.66
1020.44
6.98045
8.14816
8.80047
9.16714
9.39679
9.55229
9.65479
9.71124
9.72338
9.69534
9.61858
9.50317
9.35812
9.19167
9.0113
8.82392
8.63401
8.43601
8.22588
8.00376
7.777
7.57165
7.40626
7.27361
7.16897
7.09621
7.04432
7.00369
6.9711
6.9474
6.91088
6.86441
6.80028
1091.84
1020.62
7.14429
8.30122
8.93156
9.28279
9.50406
9.65448
9.75268
9.80422
9.80961
9.7729
9.68828
9.56707
9.41654
9.2453
9.06202
8.87361
8.68503
8.49082
8.28419
8.06182
7.82951
7.61303
7.43989
7.30367
7.19526
7.11137
7.0475
7.00238
6.9717
6.95152
6.92512
6.89054
6.84727
1091.97
1020.81
7.2739
8.41033
9.02034
9.35931
9.57434
9.72086
9.81525
9.86198
9.86161
9.81771
9.72938
9.6048
9.45267
9.28372
9.10688
8.927
8.74466
8.55263
8.34606
8.1234
7.88966
7.66502
7.47907
7.3345
7.22164
7.13231
7.06083
7.00599
6.97336
6.9581
6.94476
6.92289
6.89716
1092.08
1020.99
7.39724
8.50678
9.09891
9.43051
9.64466
9.79297
9.89001
9.93943
9.94177
9.89977
9.815
9.69389
9.54476
9.37757
9.20258
9.02854
8.85488
8.66713
8.45629
8.2226
7.97863
7.73411
7.52055
7.36151
7.24341
7.15229
7.07914
7.02212
6.9893
6.97814
6.97341
6.96238
6.94702
1092.13
1021.13
7.44951
8.53611
9.1241
9.4587
9.67837
9.83327
9.93751
9.99507
10.007
9.97577
9.9051
9.7989
9.66179
9.50011
9.32197
9.13695
8.95385
8.76624
8.56119
8.33095
8.08136
7.82395
7.58434
7.40021
7.26574
7.16893
7.09635
7.0418
7.0132
7.00731
7.00955
7.00404
6.9873
1092.14
1021.16
7.45535
8.54192
9.13545
9.48157
9.71189
9.87743
9.99307
10.0633
10.0886
10.0736
10.0198
9.93071
9.80963
9.66025
9.48752
9.29811
9.10018
8.89703
8.6881
8.46888
8.23259
7.97622
7.71666
7.49349
7.32125
7.19997
7.11799
7.06358
7.04054
7.04118
7.04924
7.04588
7.02331
1092.16
1021.16
7.45321
8.53796
9.13503
9.48607
9.72441
9.9
10.0273
10.1112
10.152
10.1541
10.1186
10.0483
9.94631
9.8156
9.6597
9.48321
9.29237
9.09145
8.88085
8.65913
8.42159
8.16199
7.88862
7.63486
7.42262
7.26262
7.15654
7.09463
7.07474
7.08139
7.0933
7.08885
7.0582
1092.19
1021.13
7.43207
8.52912
9.135
9.50029
9.74971
9.93539
10.0732
10.1686
10.2238
10.2387
10.2165
10.1592
10.0687
9.94749
9.79856
9.62575
9.43458
9.2323
9.0203
8.79882
8.56525
8.31341
8.043
7.77839
7.54511
7.35231
7.21447
7.13514
7.11283
7.12334
7.13753
7.13196
7.09644
1092.27
1021.1
7.40254
8.50779
9.1308
9.50327
9.76055
9.9551
10.1031
10.2103
10.2787
10.3085
10.3021
10.2606
10.186
10.0798
9.94397
9.78088
9.59431
9.3904
9.17365
8.94584
8.70705
8.45341
8.18389
7.91767
7.67623
7.46204
7.29417
7.19068
7.15901
7.17005
7.1857
7.17973
7.14392
1092.37
1021.09
7.38657
8.49334
9.12638
9.51111
9.7779
9.98105
10.1381
10.2551
10.3343
10.3764
10.382
10.3527
10.2903
10.1962
10.0722
9.91977
9.74145
9.54104
9.32491
9.09405
8.84969
8.59083
8.31823
8.04906
7.80338
7.57785
7.38793
7.25965
7.21299
7.22051
7.23629
7.23075
7.19736
1092.49
1021.09
7.37889
8.48988
9.13318
9.52327
9.79586
10.0055
10.1699
10.2954
10.384
10.4365
10.4529
10.4353
10.3844
10.3017
10.1886
10.0463
9.87666
9.68223
9.46803
9.23616
8.98675
8.7199
8.43885
8.16187
7.91024
7.67963
7.47993
7.33648
7.27677
7.27835
7.29272
7.28705
7.25373
1092.57
1021.1
7.37611
8.4947
9.1458
9.54241
9.82151
10.0381
10.2099
10.3433
10.4405
10.5018
10.5271
10.5182
10.4761
10.402
10.2974
10.1633
10.0013
9.81285
9.60145
9.3705
9.11806
8.84265
8.5487
8.25832
7.99481
7.75676
7.55268
7.40542
7.34219
7.34091
7.35263
7.3434
7.30291
1092.62
1021.11
7.37581
8.49582
9.15323
9.55732
9.84308
10.0662
10.2452
10.3865
10.4924
10.563
10.5975
10.5971
10.5644
10.4985
10.4017
10.2755
10.1212
9.93976
9.73342
9.50623
9.25531
8.97805
8.67725
8.3742
8.09423
7.84175
7.62698
7.47259
7.40573
7.4026
7.41187
7.39875
7.35319
1092.7
1021.16
7.39568
8.51421
9.1728
9.58036
9.87139
10.1006
10.2865
10.4356
10.5501
10.6297
10.673
10.6803
10.6555
10.5962
10.5054
10.3851
10.2363
10.0601
9.85826
9.63355
9.38418
9.10696
8.80277
8.48913
8.19498
7.9306
7.70557
7.54303
7.47106
7.46555
7.47337
7.45832
7.41009
1092.79
1021.22
7.42446
8.53955
9.19603
9.60357
9.89722
10.1303
10.3207
10.4757
10.5978
10.6874
10.7429
10.7632
10.748
10.6964
10.6122
10.4985
10.3558
10.1845
9.98609
9.76315
9.51448
9.23744
8.93303
8.60852
8.29283
8.01422
7.77949
7.6096
7.53438
7.52758
7.53396
7.51657
7.46333
1092.85
1021.29
7.45953
8.57003
9.22295
9.62924
9.92383
10.1587
10.3516
10.5095
10.6355
10.7307
10.795
10.828
10.8293
10.7987
10.7293
10.6231
10.4859
10.3188
10.1238
9.90255
9.6545
9.37714
9.06931
8.73446
8.40085
8.10603
7.85801
7.67904
7.60001
7.59232
7.59772
7.57811
7.51942
1092.92
1021.36
7.49353
8.59649
9.24359
9.64827
9.94433
10.1821
10.3786
10.5407
10.6715
10.7724
10.8439
10.8874
10.903
10.8901
10.8437
10.759
10.6327
10.4674
10.2723
10.049
9.79897
9.51798
9.20301
8.85638
8.50549
8.19361
7.93205
7.74484
7.66282
7.65453
7.65903
7.63677
7.56936
1092.95
1021.43
7.53135
8.62756
9.26678
9.6676
9.96295
10.2017
10.3999
10.5643
10.6979
10.8028
10.8804
10.9327
10.9598
10.9604
10.9339
10.8729
10.774
10.6315
10.4419
10.2103
9.95148
9.66033
9.33455
8.97451
8.60596
8.2763
8.00155
7.80885
7.72756
7.72034
7.7228
7.69531
7.61417
1092.95
1021.51
7.57244
8.6584
9.28735
9.68345
9.97758
10.217
10.417
10.5837
10.7198
10.8274
10.9067
10.9594
10.9868
10.9898
10.9696
10.9212
10.8428
10.7291
10.5745
10.3741
10.1214
9.81625
9.47349
9.09175
8.6992
8.34885
8.06133
7.86528
7.78646
7.78157
7.78252
7.74932
7.65183
1092.92
1021.59
7.60936
8.6845
9.30409
9.6956
9.98826
10.2282
10.4295
10.598
10.7366
10.8462
10.9275
10.9827
11.0138
11.0214
11.0063
10.9653
10.8968
10.7971
10.6623
10.4887
10.2676
9.98686
9.63543
9.22852
8.8048
8.42463
8.11736
7.91748
7.84347
7.84101
7.83887
7.79782
7.68197
1092.91
1021.65
7.64242
8.70649
9.31568
9.70168
9.99175
10.2301
10.4333
10.6046
10.7469
10.8607
10.946
11.0052
11.0395
11.05
11.0377
11.0005
10.9383
10.8483
10.7277
10.5744
10.38
10.1326
9.81444
9.41127
8.96067
8.5445
8.19746
7.97327
7.89681
7.89821
7.89475
7.84705
7.7164
1092.93
1021.72
7.67223
8.72511
9.32472
9.70547
9.99302
10.2312
10.4347
10.607
10.7506
10.8687
10.961
11.0261
11.0659
11.0812
11.0728
11.0392
10.9802
10.8944
10.7807
10.6382
10.4615
10.2417
9.96371
9.60711
9.17462
8.73011
8.33427
8.05763
7.9516
7.9453
7.94052
7.88987
7.75634
1093.02
1021.78
7.69861
8.74002
9.33039
9.70573
9.99215
10.2304
10.4336
10.6066
10.7518
10.8719
10.9662
11.0369
11.082
11.1024
11.0983
11.0688
11.0132
10.9304
10.8195
10.6806
10.5103
10.3037
10.0511
9.73745
9.35823
8.93357
8.50485
8.17959
8.03198
8.00838
7.99884
7.94563
7.80538
1093.04
1021.85
7.72698
8.75454
9.33434
9.70546
9.98811
10.2244
10.4275
10.6021
10.75
10.8705
10.9663
11.0405
11.0919
11.1176
11.118
11.0932
11.0407
10.9598
10.8499
10.7098
10.5366
10.3265
10.0736
9.76917
9.41368
9.01831
8.59793
8.27116
8.1095
8.07086
8.05091
7.98839
7.82619
1092.95
1021.91
7.75068
8.76508
9.33479
9.69973
9.97874
10.2128
10.4144
10.5891
10.7392
10.8652
10.9658
11.0422
11.0989
11.1315
11.1381
11.1188
11.0707
10.9935
10.8864
10.7473
10.5725
10.3571
10.0941
9.77709
9.4136
9.02114
8.61972
8.3219
8.17884
8.13708
8.10549
8.02809
7.83384
1092.84
1021.97
7.7703
8.77131
9.33285
9.69177
9.96707
10.1986
10.3988
10.5729
10.7235
10.8518
10.9576
11.0406
11.0992
11.1382
11.151
11.1371
11.0945
11.0224
10.9203
10.7859
10.6165
10.4072
10.1491
9.83718
9.47786
9.073
8.65879
8.35637
8.22734
8.18981
8.15104
8.06207
7.85
1092.85
1022.02
7.78383
8.77183
9.32484
9.67856
9.95026
10.179
10.377
10.5499
10.7006
10.8306
10.9403
11.0296
11.0969
11.1397
11.1618
11.1561
11.1206
11.0542
10.9566
10.8256
10.6611
10.4625
10.2254
9.94569
9.62479
9.24513
8.81515
8.44789
8.28126
8.23605
8.19364
8.09877
7.87766
1092.89
1022.06
7.79398
8.77065
9.31557
9.66448
9.93277
10.1586
10.3539
10.5248
10.6745
10.8052
10.9175
11.0116
11.0858
11.1375
11.1635
11.1663
11.1396
11.0795
10.9856
10.8544
10.6862
10.4829
10.2442
9.97435
9.67886
9.34252
8.96105
8.59141
8.37151
8.29813
8.24272
8.13896
7.90453
1092.88
1022.09
7.79623
8.76328
9.30153
9.64606
9.91093
10.1338
10.3266
10.4952
10.6436
10.7743
10.8891
10.9879
11.0686
11.1282
11.1639
11.1743
11.1577
11.1071
11.0198
10.8902
10.7164
10.4985
10.2379
9.94098
9.62791
9.30069
8.95912
8.64855
8.43984
8.35104
8.28218
8.16596
7.90313
1092.73
1022.11
7.79604
8.75343
9.28599
9.62668
9.88841
10.1082
10.2977
10.4629
10.6083
10.7374
10.853
10.9555
11.0426
11.1106
11.1556
11.1742
11.1687
11.1338
11.0607
10.9448
10.7815
10.5664
10.2963
9.97589
9.62862
9.27836
8.9431
8.66585
8.49693
8.40808
8.32704
8.19567
7.90589
1092.71
1022.12
7.78848
8.73823
9.26635
9.60389
9.86302
10.0803
10.2668
10.4284
10.5701
10.6962
10.811
10.9158
11.0081
11.0839
11.1387
11.1685
11.1703
11.1472
11.0923
10.997
10.859
10.6722
10.4276
10.1224
9.76282
9.35117
8.95761
8.67255
8.52399
8.44708
8.36134
8.22119
7.92546
1092.79
1022.13
7.77972
8.72235
9.24669
9.58175
9.83885
10.0537
10.2369
10.3942
10.5307
10.652
10.7637
10.8685
10.9645
11.0469
11.1104
11.1505
11.1637
11.1475
11.0975
11.011
10.8842
10.7187
10.5121
10.2626
9.9607
9.58447
9.15724
8.78872
8.57826
8.48822
8.40351
8.26484
7.97628
1092.91
1022.14
7.76631
8.70256
9.22377
9.55709
9.81284
10.0259
10.2063
10.3594
10.4906
10.6057
10.7124
10.8149
10.9125
11.0002
11.0717
11.1215
11.1455
11.1392
11.0957
11.0121
10.8861
10.7199
10.5162
10.2796
10.007
9.68036
9.2998
8.93156
8.67689
8.54389
8.44219
8.2967
7.99495
1092.86
1022.13
7.74782
8.67923
9.19906
9.53155
9.7864
9.99807
10.1761
10.3254
10.451
10.559
10.6586
10.756
10.8528
10.9446
11.0244
11.0856
11.1233
11.1308
11.1021
11.0263
10.9011
10.7275
10.5119
10.2646
9.98559
9.66959
9.32581
9.00584
8.75994
8.60532
8.4861
8.32786
8.00493
1092.79
1022.11
7.72761
8.65397
9.17266
9.50497
9.75994
9.97121
10.1478
10.294
10.4146
10.5159
10.6074
10.6969
10.7885
10.8806
10.9665
11.0386
11.0914
11.1169
11.1087
11.0627
10.9693
10.8198
10.6137
10.3555
10.0416
9.68657
9.33806
9.03052
8.81078
8.66021
8.53346
8.36233
8.021
1092.84
1022.11
7.70549
8.62668
9.14551
9.4786
9.73435
9.94576
10.1212
10.2645
10.38
10.4736
10.5552
10.6348
10.7181
10.8056
10.8933
10.9727
11.037
11.0777
11.0896
11.0688
11.0092
10.9095
10.7674
10.5718
10.299
9.93618
9.51462
9.14814
8.88314
8.70964
8.57343
8.40409
8.08484
1093.12
1022.11
7.6821
8.59882
9.11778
9.45183
9.7094
9.92211
10.0976
10.239
10.3497
10.4349
10.5043
10.5699
10.6406
10.7202
10.8048
10.8864
10.9553
11.0014
11.0201
11.01
10.9699
10.9005
10.801
10.663
10.4611
10.1655
9.7723
9.35772
9.02535
8.80595
8.64563
8.4644
8.14279
1093.15
1022.09
7.65121
8.56699
9.08773
9.42321
9.68326
9.89874
10.0759
10.217
10.3248
10.4042
10.4642
10.5165
10.5717
10.6375
10.714
10.7953
10.8674
10.9162
10.9339
10.9188
10.8728
10.8037
10.7179
10.6107
10.4522
10.2045
9.87951
9.50036
9.15592
8.90368
8.71629
8.50897
8.14458
1092.98
1022.05
7.61566
8.53307
9.05615
9.39327
9.65602
9.87562
10.0565
10.1998
10.307
10.3817
10.432
10.4694
10.5075
10.5572
10.6239
10.7041
10.7836
10.8429
10.868
10.8515
10.7945
10.7035
10.592
10.4681
10.3262
10.1451
9.88112
9.56152
9.24431
8.988
8.7826
8.54422
8.11775
1092.7
1021.98
7.57786
8.49805
9.0238
9.36295
9.62837
9.85182
10.0377
10.1853
10.2952
10.3695
10.4141
10.4396
10.46
10.4899
10.5405
10.6149
10.7036
10.7833
10.8318
10.8327
10.7807
10.6818
10.55
10.3902
10.2117
10.0213
9.80906
9.56438
9.29739
9.04962
8.83367
8.57963
8.12194
1092.67
1021.91
7.5481
8.46715
8.9939
9.33502
9.60246
9.82946
10.0205
10.1729
10.2866
10.363
10.4061
10.4242
10.4293
10.4366
10.4641
10.5245
10.6174
10.7243
10.8182
10.8704
10.8613
10.7889
10.65
10.454
10.2283
10.0209
9.80833
9.57439
9.33798
9.10378
8.88799
8.62607
8.14367
1092.78
1021.9
7.52925
8.44292
8.96843
9.31054
9.57955
9.80954
10.0046
10.1626
10.2814
10.3615
10.4051
10.4174
10.4107
10.3974
10.396
10.4253
10.5039
10.6234
10.7625
10.8892
10.9692
10.9812
10.9189
10.7553
10.5019
10.1757
9.872
9.62402
9.39837
9.17314
8.95205
8.69887
8.2725
1093.43
1021.94
7.5229
8.42495
8.94704
9.2895
9.55973
9.79208
9.99051
10.1535
10.2767
10.3599
10.4037
10.4114
10.3928
10.3581
10.3254
10.3215
10.3662
10.4805
10.6483
10.8386
11.0053
11.1135
11.1473
11.0928
10.9129
10.6184
10.243
9.868
9.54796
9.2782
9.04106
8.79576
8.43785
1093.97
1022.07
7.53956
8.41732
8.93264
9.27399
9.54444
9.77788
9.97852
10.1445
10.2719
10.3584
10.4037
10.4108
10.3846
10.3228
10.2518
10.1988
10.2045
10.2919
10.476
10.7133
10.9498
11.1389
11.2664
11.3018
11.2317
11.0183
10.6694
10.2282
9.79903
9.44711
9.17276
8.90191
8.52858
1093.99
1022.17
7.54175
8.40452
8.91468
9.25492
9.52609
9.76045
9.96361
10.1335
10.2661
10.3578
10.4048
10.4113
10.381
10.3154
10.2131
10.0932
10.0112
10.0408
10.2046
10.4828
10.7987
11.079
11.2688
11.3395
11.2869
11.1007
10.7799
10.3655
9.94044
9.58333
9.28986
8.9779
8.52198
1093.4
1022.18
7.5291
8.38287
8.89157
9.23125
9.50268
9.73825
9.9449
10.1204
10.2608
10.3606
10.4186
10.4316
10.4001
10.3237
10.2072
10.0648
9.92877
9.852
9.93917
10.216
10.5844
10.9472
11.2046
11.3074
11.2715
11.0876
10.771
10.3727
9.98249
9.64685
9.34201
8.96909
8.354
1092.6
1022.11
7.48802
8.35186
8.86255
9.20238
9.47417
9.71071
9.92023
10.1006
10.2485
10.3607
10.4346
10.4707
10.4717
10.4325
10.3412
10.1894
9.9922
9.80851
9.74657
9.83531
10.1266
10.5148
10.8356
11.0128
11.0388
10.92
10.6745
10.3525
10.011
9.69663
9.38151
8.96464
8.22996
1092.23
1022
7.44962
8.32241
8.83441
9.17427
9.44651
9.68408
9.89647
10.0813
10.2351
10.3546
10.4361
10.4849
10.5056
10.4991
10.4571
10.3681
10.212
9.99224
9.79583
9.74544
9.87654
10.1558
10.4695
10.7235
10.8299
10.7945
10.6211
10.3539
10.0554
9.74829
9.42481
8.98529
8.22919
1092.21
1021.87
7.41802
8.29772
8.80894
9.14806
9.42033
9.65786
9.87108
10.0577
10.215
10.3406
10.4316
10.4862
10.5144
10.5271
10.5342
10.5252
10.4596
10.301
10.0543
9.81566
9.75124
9.85337
10.0689
10.3274
10.5288
10.6056
10.5377
10.3372
10.0563
9.75667
9.43882
9.00858
8.24051
1092.3
1021.83
7.41402
8.28238
8.78933
9.12729
9.39991
9.63792
9.85101
10.0376
10.1948
10.3206
10.4144
10.4753
10.5095
10.5285
10.5438
10.5685
10.608
10.6163
10.5195
10.3189
10.0945
9.94504
9.94782
10.0126
10.1383
10.2493
10.2866
10.2202
10.0441
9.79362
9.50755
9.11701
8.4116
1092.96
1021.85
7.41926
8.27915
8.77642
9.11221
9.38543
9.62417
9.83701
10.0232
10.1784
10.2993
10.3854
10.439
10.4638
10.4744
10.4912
10.5371
10.6252
10.7291
10.8105
10.7963
10.7024
10.5122
10.2753
10.1353
10.1367
10.1745
10.1932
10.1652
10.0411
9.8418
9.58441
9.23285
8.64344
1093.87
1022.02
7.46397
8.28531
8.76964
9.10167
9.37496
9.61439
9.82717
10.0134
10.1672
10.2838
10.3599
10.3992
10.4036
10.3844
10.3653
10.3854
10.49
10.68
10.8937
11.0548
11.1157
11.0726
10.9187
10.6966
10.4535
10.2859
10.2109
10.1773
10.0485
9.86162
9.63132
9.3401
8.85984
1094.36
1022.23
7.49567
8.28547
8.75777
9.08681
9.36061
9.60199
9.81636
10.0041
10.1583
10.2724
10.3423
10.3626
10.3381
10.2783
10.2132
10.1872
10.2576
10.4819
10.7952
11.0849
11.2876
11.3826
11.3608
11.2295
11.01
10.7478
10.5016
10.2979
10.1349
9.93524
9.70852
9.42017
8.92723
1094.35
1022.33
7.49987
8.26836
8.73294
9.06158
9.33737
9.58138
9.79885
9.99106
10.1504
10.268
10.3389
10.3562
10.3223
10.2408
10.1187
10.0015
10.0004
10.2186
10.5695
10.9422
11.2386
11.3932
11.427
11.3565
11.1905
10.9514
10.6854
10.4357
10.2133
9.98835
9.74691
9.42425
8.87476
1093.45
1022.33
7.4668
8.23671
8.70336
9.03291
9.31051
9.55789
9.78021
9.97874
10.1476
10.2793
10.3645
10.3909
10.3552
10.2552
10.102
9.93468
9.83561
9.86068
10.1215
10.5341
10.9509
11.2426
11.3461
11.3252
11.1833
10.9569
10.6997
10.4549
10.228
10.0032
9.74692
9.37448
8.63639
1092.54
1022.22
7.40418
8.18596
8.65686
8.98902
9.26959
9.52124
9.74955
9.95616
10.1371
10.2865
10.3963
10.4549
10.4547
10.3868
10.2493
10.0568
9.87025
9.79883
9.87388
10.128
10.4771
10.7921
10.9988
11.0731
11.0376
10.8958
10.6891
10.459
10.2355
10.0023
9.72015
9.2836
8.43526
1092.14
1022.04
7.33386
8.13695
8.61575
8.95086
9.23381
9.48886
9.72187
9.93497
10.1253
10.2879
10.4221
10.516
10.5566
10.5392
10.4488
10.2776
10.0445
9.83783
9.7732
9.87077
10.1254
10.4094
10.63
10.7652
10.8118
10.7667
10.6327
10.4452
10.2276
9.99223
9.71147
9.27924
8.43109
1092.12
1021.85
7.26305
8.08327
8.56943
8.90825
9.19454
9.45389
9.69238
9.91255
10.1125
10.289
10.4393
10.5604
10.6477
10.6896
10.6763
10.5819
10.3891
10.112
9.85193
9.7492
9.82998
10.0517
10.2971
10.491
10.5985
10.6106
10.5398
10.3968
10.215
9.99169
9.71467
9.29304
8.45683
1092.32
1021.7
7.20882
8.04101
8.53239
8.87384
9.16257
9.42524
9.66804
9.89366
10.0996
10.2838
10.4454
10.5832
10.6964
10.7836
10.8352
10.8318
10.7475
10.5631
10.2803
9.9685
9.78664
9.78388
9.91492
10.1259
10.3291
10.448
10.4593
10.3867
10.2232
10.0122
9.75422
9.36521
8.59948
1092.93
1021.62
7.17318
8.00772
8.50071
8.84405
9.13543
9.40179
9.64931
9.88048
10.0918
10.2812
10.4485
10.5956
10.724
10.8346
10.9238
10.9802
10.9862
10.9247
10.7722
10.5372
10.2497
9.98191
9.85917
9.88154
9.99362
10.1683
10.2919
10.3082
10.2218
10.0496
9.816
9.46631
8.79872
1093.65
1021.6
7.15444
7.98501
8.47631
8.81971
9.1126
9.38191
9.6339
9.8695
10.085
10.2784
10.4486
10.5979
10.7297
10.8482
10.952
11.0365
11.0923
11.1047
11.0635
10.9513
10.7767
10.5304
10.2278
10.0092
9.96525
10.001
10.1044
10.1901
10.1861
10.0686
9.86129
9.55068
8.975
1094.22
1021.64
7.14986
7.96816
8.45428
8.79691
9.09132
9.36351
9.61981
9.85876
10.0773
10.2738
10.4478
10.5989
10.7311
10.85
10.9552
11.0443
11.1142
11.1581
11.1716
11.1522
11.0812
10.9397
10.7145
10.4361
10.1666
10.046
10.0739
10.1215
10.1369
10.0658
9.89628
9.62619
9.10321
1094.4
1021.7
7.15041
7.95451
8.4343
8.7752
9.07032
9.34463
9.60411
9.84527
10.0656
10.2637
10.4383
10.5892
10.7197
10.834
10.9323
11.0152
11.084
11.1383
11.1742
11.1903
11.1812
11.1245
10.9937
10.783
10.521
10.2857
10.1442
10.132
10.1378
10.0657
9.91635
9.6675
9.13956
1094.33
1021.75
7.14879
7.93662
8.41036
8.74973
9.04573
9.32268
9.58377
9.8263
10.0483
10.2484
10.4251
10.5767
10.706
10.8153
10.9032
10.9711
11.0228
11.0631
11.0949
11.1225
11.1425
11.1299
11.0583
10.9175
10.7135
10.4884
10.3119
10.2256
10.1693
10.0789
9.92826
9.66995
9.11829
1093.91
1021.75
7.13287
7.91286
8.38285
8.72086
9.01705
9.29544
9.55726
9.8005
10.0236
10.2256
10.4051
10.5602
10.6919
10.7993
10.8796
10.9328
10.9631
10.9788
10.991
11.0075
11.0336
11.05
11.0265
10.9352
10.7958
10.6165
10.448
10.3268
10.2268
10.1045
9.93546
9.65277
9.02391
1093.5
1021.73
7.10679
7.88342
8.35134
8.68878
8.9857
9.26491
9.52705
9.77057
9.99459
10.1987
10.3819
10.5424
10.6804
10.792
10.8728
10.9213
10.9394
10.933
10.9133
10.901
10.9062
10.9234
10.931
10.9037
10.816
10.6941
10.5529
10.4194
10.2897
10.1417
9.95046
9.63857
8.95319
1093.33
1021.68
7.07728
7.85305
8.31951
8.65656
8.95445
9.23375
9.4955
9.73861
9.96283
10.1685
10.3554
10.5224
10.6697
10.791
10.8799
10.9319
10.9473
10.9305
10.8928
10.8529
10.8198
10.8033
10.8057
10.8112
10.7925
10.7202
10.6151
10.4884
10.3453
10.1796
9.97181
9.64038
8.9474
1093.33
1021.64
7.04719
7.82146
8.28681
8.62372
8.92259
9.20236
9.46409
9.70681
9.93072
10.1371
10.3265
10.4988
10.6547
10.7867
10.8885
10.9557
10.9851
10.9784
10.9425
10.8899
10.8303
10.7812
10.7473
10.7347
10.7315
10.7078
10.6405
10.5343
10.393
10.2188
10.0003
9.65809
8.95848
1093.49
1021.6
7.02135
7.79298
8.25691
8.5938
8.8935
9.17342
9.43472
9.67671
9.90003
10.1065
10.2974
10.4735
10.6354
10.776
10.8889
10.9704
11.017
11.0293
11.0127
10.9709
10.9047
10.8232
10.7577
10.7294
10.7191
10.7048
10.6572
10.5693
10.4362
10.2615
10.0403
9.69897
9.01691
1093.72
1021.57
6.9964
7.76451
8.22696
8.56447
8.8648
9.1451
9.40619
9.64735
9.8697
10.0758
10.2679
10.4471
10.6136
10.7605
10.882
10.9736
11.0339
11.0629
11.0648
11.0406
10.9864
10.9067
10.8199
10.7515
10.7214
10.707
10.6736
10.5995
10.4743
10.3023
10.0816
9.74231
9.07111
1093.83
1021.55
6.9737
7.73763
8.19808
8.53611
8.83729
9.11816
9.37904
9.61905
9.83969
10.0444
10.2364
10.4181
10.5888
10.742
10.8715
10.9727
11.0433
11.084
11.0987
11.086
11.0419
10.9693
10.8822
10.8065
10.7596
10.7327
10.7
10.6297
10.5078
10.3374
10.1164
9.77555
9.10181
1093.85
1021.52
6.95213
7.71056
8.16887
8.50765
8.81001
9.09178
9.35264
9.59138
9.80963
10.0115
10.2017
10.384
10.5581
10.718
10.8574
10.9709
11.0556
11.1107
11.1384
11.1348
11.0961
11.0254
10.937
10.8577
10.804
10.7721
10.7368
10.6669
10.5458
10.3754
10.1536
9.81078
9.13171
1093.9
1021.52
6.93501
7.68559
8.14123
8.48074
8.78456
9.06757
9.32874
9.56623
9.78145
9.97889
10.1643
10.3436
10.5174
10.6814
10.83
10.9579
11.0614
11.1387
11.1875
11.2012
11.175
11.1078
11.015
10.9248
10.8562
10.8126
10.7727
10.7034
10.5841
10.4146
10.193
9.85155
9.17903
1094.04
1021.53
6.91996
7.66056
8.11388
8.45425
8.76012
9.04514
9.3074
9.54425
9.75651
9.94866
10.1272
10.2995
10.4679
10.6301
10.7824
10.9207
11.0418
11.1429
11.2188
11.2603
11.2575
11.2102
11.1255
11.0299
10.9449
10.8822
10.8287
10.7527
10.6309
10.4606
10.2386
9.89679
9.22406
1094.11
1021.56
6.9075
7.63537
8.08621
8.42777
8.73641
9.02439
9.28874
9.52573
9.73526
9.92144
10.0912
10.253
10.4106
10.5643
10.7122
10.8533
10.9851
11.1064
11.2087
11.2774
11.3056
11.2865
11.2245
11.1384
11.0486
10.9711
10.9005
10.8106
10.6803
10.5052
10.2772
9.92476
9.2361
1094.09
1021.58
6.88833
7.60508
8.05445
8.39791
8.71014
9.00223
9.27006
9.50849
9.71613
9.89611
10.055
10.2021
10.3422
10.4789
10.6155
10.7523
10.8892
11.0267
11.1534
11.2528
11.3069
11.315
11.2813
11.2145
11.1319
11.0503
10.9691
10.8674
10.7276
10.5451
10.3087
9.94402
9.2304
1093.96
1021.58
6.85971
7.56858
8.01797
8.36412
8.68079
8.97838
9.25174
9.49425
9.70286
9.87895
10.0278
10.1586
10.279
10.395
10.5135
10.6377
10.7701
10.9145
11.0573
11.1806
11.2689
11.3101
11.3094
11.2723
11.2066
11.1275
11.0359
10.9191
10.7679
10.5774
10.3321
9.95046
9.20461
1093.82
1021.56
6.82121
7.52638
7.97683
8.32592
8.64746
8.95167
9.23246
9.48189
9.69564
9.87386
10.0197
10.1383
10.2363
10.3262
10.4191
10.5236
10.6423
10.7826
10.9315
11.0721
11.1882
11.2671
11.3033
11.2934
11.2545
11.1824
11.0869
10.9618
10.8021
10.6034
10.3494
9.95439
9.17474
1093.68
1021.5
6.77256
7.47819
7.93029
8.28223
8.60881
8.92049
9.21034
9.46907
9.69074
9.87353
10.0213
10.1364
10.227
10.3014
10.3691
10.44
10.5308
10.6488
10.785
10.926
11.0565
11.1627
11.2364
11.2689
11.2543
11.2053
11.1202
10.9948
10.8309
10.6278
10.3693
9.96351
9.17458
1093.64
1021.43
6.7195
7.42671
7.87974
8.23371
8.56484
8.88413
9.18416
9.45492
9.68964
9.88533
10.0438
10.1657
10.2548
10.3183
10.367
10.4149
10.4766
10.562
10.6693
10.7937
10.9271
11.0563
11.1639
11.2304
11.2466
11.2159
11.1405
11.0178
10.8534
10.65
10.3917
9.98465
9.1837
1093.66
1021.35
6.66842
7.37543
7.82752
8.18224
8.51694
8.84306
9.15262
9.43486
9.68245
9.89275
10.0666
10.2039
10.3066
10.3782
10.4257
10.4614
10.502
10.5571
10.6248
10.7066
10.808
10.9266
11.0494
11.1494
11.2047
11.2062
11.148
11.0347
10.8759
10.675
10.4189
10.0177
9.22629
1093.79
1021.28
6.6245
7.32724
7.77547
8.12917
8.46626
8.79857
9.1176
9.41166
9.67245
9.89643
10.0881
10.2446
10.368
10.4603
10.5241
10.5674
10.6026
10.6339
10.6668
10.7119
10.776
10.8551
10.9515
11.0506
11.1284
11.1629
11.1413
11.0481
10.9009
10.7066
10.4568
10.0681
9.29607
1094.02
1021.24
6.59472
7.28677
7.72708
8.07733
8.41496
8.75199
9.07937
9.38434
9.65767
9.89493
10.0993
10.2711
10.4141
10.5306
10.6215
10.6903
10.7435
10.7805
10.8014
10.8121
10.8239
10.8653
10.9405
11.022
11.0973
11.1446
11.1394
11.0653
10.931
10.7446
10.5034
10.1305
9.38815
1094.32
1021.23
6.57347
7.25202
7.68172
8.02631
8.36286
8.70353
9.0388
9.35432
9.63905
9.88754
10.1015
10.2844
10.4421
10.5778
10.6931
10.7889
10.8689
10.9289
10.9638
10.9734
10.9659
10.9589
10.9737
11.0277
11.0978
11.1445
11.1441
11.0862
10.9639
10.7862
10.5533
10.1945
9.48222
1094.61
1021.25
6.56944
7.22552
7.64067
7.97709
8.31036
8.65308
8.99551
9.32135
9.61717
9.87611
10.0977
10.286
10.449
10.5938
10.7253
10.8451
10.9529
11.0431
11.1068
11.1377
11.1384
11.1223
11.1035
11.1036
11.125
11.1575
11.1644
11.1188
11.0059
10.8359
10.6098
10.2601
9.56637
1094.73
1021.31
6.57074
7.20442
7.60451
7.93109
8.25921
8.60259
8.95169
9.28797
9.59486
9.86334
10.0898
10.28
10.4438
10.5904
10.7267
10.8571
10.9834
11.0993
11.1928
11.2535
11.2789
11.277
11.259
11.2379
11.2294
11.2327
11.2228
11.1688
11.0552
10.8859
10.6568
10.2974
9.59247
1094.71
1021.37
6.57309
7.18542
7.57082
7.88586
8.20645
8.54817
8.90267
9.24971
9.56902
9.8484
10.0799
10.2695
10.4291
10.5701
10.7025
10.835
10.9713
11.1021
11.2164
11.3053
11.3613
11.3868
11.3849
11.3671
11.348
11.3319
11.3021
11.2324
11.1095
10.934
10.6968
10.3239
9.58495
1094.5
1021.4
6.5686
7.16565
7.5397
7.84295
8.15395
8.49091
8.84819
9.20521
9.53796
9.82979
10.0681
10.2574
10.4113
10.5428
10.6655
10.7914
10.9279
11.0675
11.1987
11.3072
11.3901
11.4499
11.4783
11.4795
11.4634
11.4349
11.3842
11.295
11.1593
10.9741
10.723
10.3223
9.53621
1094.24
1021.41
6.55313
7.14387
7.51029
7.80247
8.10223
8.4309
8.78734
9.15321
9.50162
9.80874
10.0582
10.2516
10.4025
10.5246
10.6327
10.7453
10.8708
11.005
11.1406
11.2673
11.3766
11.4572
11.5156
11.5417
11.5378
11.5065
11.4455
11.3458
11.2009
11.0063
10.742
10.3206
9.47786
1094.04
1021.37
6.52454
7.11984
7.48353
7.76663
8.05423
8.37081
8.72083
9.09187
9.45708
9.78445
10.0518
10.2551
10.4077
10.5238
10.6202
10.7153
10.8177
10.9311
11.0562
11.1878
11.3168
11.4303
11.5102
11.5574
11.5748
11.5563
11.4971
11.3919
11.2397
11.0374
10.7645
10.3261
9.47192
1093.99
1021.3
6.48946
7.09523
7.45976
7.73695
8.01208
8.31439
8.65275
9.0231
9.40309
9.75492
10.0495
10.2748
10.4422
10.5646
10.6577
10.7374
10.8154
10.8983
10.9906
11.0991
11.2271
11.3604
11.4745
11.5531
11.584
11.5799
11.5263
11.4222
11.2692
11.0662
10.7923
10.3494
9.48006
1094.01
1021.23
6.4558
7.07323
7.44058
7.71445
7.98068
8.27057
8.59508
8.95869
9.34756
9.72268
10.0492
10.3067
10.5028
10.6484
10.7555
10.8335
10.8899
10.9373
10.9959
11.0776
11.1746
11.2862
11.4005
11.4987
11.5635
11.5759
11.537
11.4428
11.2955
11.0953
10.8243
10.3867
9.52555
1094.17
1021.16
6.4293
7.05609
7.42575
7.69756
7.95811
8.23869
8.55058
8.9047
9.29639
9.68918
10.045
10.3375
10.57
10.7501
10.8855
10.981
11.0413
11.0737
11.093
11.1186
11.1819
11.2795
11.3782
11.4702
11.5413
11.5714
11.5461
11.4639
11.3252
11.1315
10.8687
10.4452
9.60177
1094.39
1021.11
6.41214
7.04465
7.41476
7.6849
7.94314
8.21757
8.51949
8.86415
9.25463
9.65883
10.0376
10.3621
10.6312
10.8477
11.0152
11.1377
11.2172
11.2558
11.263
11.2581
11.2685
11.3081
11.384
11.4705
11.5402
11.5737
11.5603
11.4866
11.3545
11.1668
10.9127
10.5051
9.68731
1094.67
1021.09
6.40923
7.04194
7.40699
7.6733
7.92959
8.19946
8.49436
8.83234
9.2201
9.62943
10.0222
10.3731
10.6733
10.9234
11.1264
11.283
11.3928
11.455
11.4732
11.4606
11.4404