/*--------------------------------*- C++ -*----------------------------------*\
| =========                 |                                                 |
| \\      /  F ield         | OpenFOAM: The Open Source CFD Toolbox           |
|  \\    /   O peration     | Version:  2.3.x                                 |
|   \\  /    A nd           | Web:      www.OpenFOAM.org                      |
|    \\/     M anipulation  |                                                 |
\*---------------------------------------------------------------------------*/
FoamFile
{
    version     2.0;
    format      ascii;
    class       volScalarField;
    location    "950";
    object      omega;
}
// * * * * * * * * * * * * * * * * * * * * * * * * * * * * * * * * * * * * * //

dimensions      [0 0 -1 0 0 0 0];

internalField   nonuniform List<scalar> 
78750
(
349.539
15.5595
16.0285
16.2288
16.3681
16.5292
16.7011
16.856
16.9901
17.1045
17.2005
17.2801
17.3457
17.4019
17.4387
17.5315
17.6238
17.674
17.6913
17.6911
17.6821
17.6602
17.6305
17.5951
17.5541
17.5066
17.4538
17.3908
17.3215
17.2434
17.1519
17.0395
16.9004
16.6027
373.464
512.118
5.27905
5.63165
5.85457
6.14356
6.4924
6.83878
7.16759
7.45115
7.68348
7.87009
8.01786
8.12953
8.2183
8.28185
8.27889
8.23574
8.1859
8.13361
8.0788
8.02281
7.96632
7.90915
7.85195
7.79498
7.74034
7.68989
7.63302
7.56831
7.49897
7.41562
7.31171
7.14764
6.824
548.495
511.775
4.8887
5.52596
6.13949
6.76863
7.30364
7.68926
7.96329
8.15718
8.29076
8.376
8.42133
8.42943
8.41519
8.36985
8.31053
8.24245
8.17145
8.09328
8.00791
7.9167
7.82153
7.72485
7.62987
7.54177
7.45973
7.38609
7.33847
7.31294
7.30341
7.29641
7.25953
7.121
6.87817
549.054
511.83
5.47648
6.47453
7.24548
7.72746
8.01598
8.21991
8.34836
8.42581
8.46982
8.4889
8.48779
8.46877
8.43077
8.37572
8.30414
8.2178
8.1112
7.98935
7.85682
7.71902
7.57858
7.4406
7.30932
7.18244
7.07699
7.00323
6.96239
6.95921
6.97882
7.02751
7.06068
7.02376
6.88314
549.176
512.03
5.78205
6.78781
7.44081
7.84397
8.10302
8.27868
8.40794
8.50378
8.56912
8.60481
8.61033
8.59162
8.53854
8.45909
8.35699
8.23545
8.10164
7.9587
7.80592
7.64406
7.48283
7.32673
7.17642
7.02973
6.89525
6.79478
6.73222
6.71568
6.73775
6.80952
6.8885
6.90503
6.831
549.103
512.302
6.16139
7.14305
7.72885
8.08165
8.31485
8.48197
8.59812
8.67302
8.71411
8.72532
8.71073
8.66759
8.59982
8.50887
8.39721
8.268
8.12455
7.96974
7.80684
7.64113
7.47758
7.31978
7.16863
7.02953
6.90541
6.78986
6.6867
6.62743
6.62664
6.6756
6.76573
6.80699
6.74497
548.926
512.424
6.23864
7.18095
7.76251
8.11381
8.3427
8.50536
8.62598
8.71413
8.77315
8.80365
8.80569
8.78138
8.72841
8.6481
8.54204
8.41345
8.26723
8.10398
7.92683
7.74348
7.56041
7.38311
7.21654
7.06981
6.94216
6.82189
6.70527
6.61009
6.56692
6.58989
6.66809
6.71181
6.6534
548.819
512.502
6.31898
7.26729
7.85883
8.2151
8.44697
8.61348
8.73719
8.82646
8.88496
8.91473
8.91728
8.89452
8.84694
8.77653
8.68437
8.57175
8.44127
8.29315
8.1264
7.94107
7.73975
7.52709
7.31515
7.13514
6.9912
6.86857
6.75203
6.63903
6.56916
6.56295
6.60744
6.64302
6.59331
548.805
512.515
6.33042
7.28034
7.87062
8.23146
8.47128
8.64635
8.77942
8.87974
8.95146
8.99633
9.01489
9.00784
8.97462
8.91607
8.83335
8.72847
8.60452
8.46491
8.30952
8.13833
7.95088
7.74463
7.51836
7.28901
7.08789
6.91774
6.77196
6.65289
6.57251
6.54424
6.56992
6.5944
6.55466
548.849
512.535
6.3589
7.33142
7.94206
8.31662
8.5641
8.7436
8.87945
8.98167
9.05481
9.10094
9.12094
9.11603
9.08618
9.03158
8.95308
8.85199
8.73052
8.59269
8.43866
8.26901
8.08381
7.88165
7.66304
7.43545
7.22296
7.03736
6.86979
6.72225
6.60757
6.5514
6.55579
6.5739
6.55824
548.966
512.601
6.42946
7.40015
8.0056
8.37764
8.62592
8.80778
8.94691
9.05353
9.13236
9.18545
9.21326
9.2154
9.19461
9.14571
9.07173
8.97403
8.85461
8.7167
8.56067
8.38632
8.19332
7.98085
7.74857
7.51066
7.29555
7.1034
6.9251
6.76702
6.64195
6.56991
6.56223
6.57801
6.57427
549.06
512.64
6.48535
7.4787
8.0943
8.46862
8.7171
8.89952
9.04002
9.14867
9.23013
9.28675
9.31934
9.32729
9.31161
9.26912
9.2032
9.11396
9.00207
8.87004
8.71841
8.54655
8.35306
8.13752
7.90236
7.65313
7.41411
7.2032
7.01179
6.83867
6.69603
6.60394
6.58217
6.59512
6.60996
549.17
512.718
6.58316
7.58588
8.19362
8.55645
8.79783
8.97653
9.11572
9.2246
9.30791
9.36828
9.40668
9.42244
9.41674
9.38807
9.3349
9.25568
9.15042
9.02229
8.87076
8.69564
8.49677
8.27372
8.0279
7.76442
7.50876
7.28322
7.08001
6.8981
6.74755
6.64594
6.61783
6.63111
6.65806
549.253
512.781
6.67345
7.69482
8.30119
8.65679
8.89237
9.06702
9.20326
9.30978
9.39194
9.45324
9.49547
9.52021
9.52651
9.51526
9.47978
9.41886
9.32977
9.21167
9.06339
8.88644
8.68354
8.45363
8.19784
7.91906
7.64133
7.38995
7.15999
6.95611
6.7936
6.69034
6.66233
6.67433
6.70059
549.303
512.879
6.79389
7.82278
8.4111
8.7512
8.97682
9.14536
9.27647
9.37891
9.45868
9.51947
9.56462
9.59514
9.61032
9.60852
9.5871
9.54321
9.47384
9.3771
9.24846
9.08449
8.88256
8.64312
8.37486
8.08133
7.78757
7.5181
7.26538
7.03562
6.85107
6.73732
6.70706
6.71988
6.75116
549.404
513.002
6.93095
7.96141
8.52865
8.85139
9.06517
9.22499
9.34819
9.44416
9.51902
9.57767
9.62362
9.65801
9.67945
9.68593
9.67646
9.64466
9.58927
9.5072
9.39456
9.24881
9.06642
8.84258
8.57247
8.25858
7.94368
7.65625
7.38629
7.13702
6.93078
6.80029
6.76112
6.77379
6.81326
549.506
513.156
7.07813
8.09265
8.63119
8.93335
9.13385
9.28253
9.39633
9.48405
9.55239
9.60742
9.65472
9.69531
9.72619
9.7441
9.74454
9.7266
9.68422
9.61432
9.5134
9.37963
9.21013
9.00051
8.74448
8.43707
8.10146
7.77903
7.48377
7.21956
7.00189
6.8655
6.82646
6.8405
6.87554
549.527
513.313
7.21541
8.20542
8.71741
9.00072
9.18847
9.32647
9.42993
9.50717
9.56493
9.6158
9.66526
9.71421
9.75895
9.79113
9.80489
9.79946
9.77026
9.71223
9.6224
9.49968
9.34164
9.14384
8.89938
8.60152
8.2635
7.90723
7.54935
7.25727
7.04924
6.93079
6.89288
6.89788
6.91447
549.519
513.441
7.31495
8.28464
8.77774
9.04761
9.22457
9.35235
9.44516
9.51141
9.56342
9.6128
9.66274
9.71316
9.76153
9.80388
9.83743
9.84953
9.83691
9.79456
9.7204
9.61419
9.4747
9.29824
9.07855
8.81375
8.51011
8.15842
7.75623
7.36332
7.09158
6.97502
6.9512
6.95491
6.96087
549.571
513.526
7.37898
8.33765
8.82256
9.08564
9.25525
9.37445
9.45707
9.51064
9.55246
9.59099
9.63792
9.69456
9.75329
9.80499
9.84434
9.87178
9.87792
9.85299
9.79426
9.70328
9.58056
9.42563
9.23625
9.01219
8.7552
8.44918
8.07607
7.65353
7.27013
7.05481
7.00306
7.01017
7.02111
549.644
513.582
7.42405
8.37654
8.85748
9.1191
9.28548
9.39857
9.4712
9.51094
9.53441
9.55407
9.5873
9.63952
9.70519
9.77302
9.8317
9.87214
9.89126
9.88578
9.84354
9.76632
9.65434
9.50869
9.32969
9.11729
8.87025
8.57674
8.22917
7.83896
7.45993
7.2031
7.10527
7.08149
7.06462
549.605
513.626
7.45795
8.40832
8.88979
9.15441
9.32317
9.43336
9.49868
9.52785
9.53253
9.5299
9.54492
9.58195
9.64286
9.71709
9.79107
9.85188
9.8897
9.90053
9.88322
9.82815
9.73223
9.59777
9.42299
9.20566
8.9414
8.61885
8.24612
7.85744
7.52577
7.30929
7.20422
7.1516
7.09393
549.554
513.664
7.48119
8.43036
8.91521
9.1853
9.35982
9.47312
9.53295
9.54575
9.53034
9.50857
9.4919
9.51015
9.55994
9.63372
9.7191
9.79783
9.85801
9.89202
9.8942
9.86561
9.80417
9.70372
9.56085
9.3731
9.13106
8.81302
8.40983
7.96929
7.59322
7.36768
7.26262
7.20321
7.12905
549.61
513.688
7.48982
8.44009
8.93217
9.21088
9.39498
9.5188
9.58914
9.60672
9.57851
9.5222
9.47135
9.44185
9.46252
9.52435
9.61085
9.70246
9.78188
9.83896
9.86749
9.86358
9.82507
9.75323
9.64793
9.50538
9.31332
9.04822
8.6893
8.24432
7.79834
7.48758
7.33765
7.26591
7.1975
549.756
513.711
7.4925
8.44418
8.94366
9.2304
9.42298
9.55573
9.63598
9.66407
9.64562
9.58495
9.49769
9.42188
9.38183
9.40311
9.47427
9.56836
9.66254
9.73985
9.79052
9.809
9.79314
9.74169
9.65598
9.53388
9.36473
9.13155
8.81678
8.41589
7.98458
7.64054
7.44698
7.34536
7.25356
549.754
513.726
7.49681
8.44374
8.94849
9.2458
9.44872
9.59238
9.68426
9.72409
9.71812
9.66885
9.58202
9.46982
9.36597
9.31253
9.32451
9.40513
9.50496
9.60129
9.67756
9.72342
9.73349
9.70724
9.64207
9.53558
9.3764
9.14947
8.84447
8.46823
8.07544
7.74875
7.54164
7.41654
7.2952
549.754
513.73
7.49074
8.44169
8.94984
9.25666
9.46981
9.62455
9.72855
9.78303
9.78964
9.75304
9.67746
9.56864
9.43711
9.31158
9.24939
9.24524
9.32108
9.42206
9.51861
9.59387
9.63739
9.64567
9.61819
9.54674
9.42275
9.22859
8.94756
8.58313
8.19378
7.85973
7.63444
7.49177
7.35333
549.81
513.724
7.47096
8.42636
8.94861
9.26292
9.48724
9.65392
9.77104
9.84049
9.86145
9.83998
9.77805
9.67993
9.55109
9.40126
9.25495
9.16711
9.15016
9.21673
9.31554
9.41137
9.48444
9.52593
9.53305
9.50239
9.41518
9.25625
9.01971
8.69471
8.32223
7.97988
7.73534
7.57126
7.40928
549.837
513.706
7.44886
8.40698
8.93911
9.26451
9.50113
9.67989
9.81036
9.89488
9.93135
9.92591
9.87949
9.79534
9.67706
9.5296
9.36225
9.1975
9.0786
9.03919
9.0933
9.1901
9.28523
9.35697
9.39606
9.39441
9.33943
9.21934
9.01409
8.73089
8.4014
8.0804
7.83229
7.65038
7.46005
549.832
513.689
7.42282
8.38563
8.92871
9.26626
9.51279
9.70327
9.84675
9.94572
10.0007
10.0108
9.98085
9.91261
9.80879
9.67263
9.50891
9.32686
9.14525
8.99602
8.91943
8.95274
9.05308
9.15696
9.23764
9.27847
9.26188
9.16992
8.99483
8.74355
8.44916
8.15482
7.91228
7.72106
7.50688
549.856
513.652
7.38662
8.35682
8.9137
9.2641
9.52208
9.72462
9.88144
9.99506
10.066
10.0925
10.0799
10.0284
9.94027
9.81775
9.66385
9.48363
9.28743
9.08883
8.91686
8.81788
8.82242
8.92062
9.03779
9.13295
9.17418
9.13862
9.00216
8.79085
8.52048
8.23778
7.99507
7.79962
7.58255
549.985
513.617
7.35392
8.3305
8.89927
9.26098
9.53115
9.74568
9.91538
10.0432
10.1295
10.1731
10.1767
10.1416
10.0694
9.96168
9.82052
9.64869
9.45151
9.23795
9.02012
8.82708
8.7054
8.69222
8.79025
8.92805
9.03305
9.06265
8.99711
8.82357
8.58333
8.31394
8.07551
7.87682
7.64789
550.016
513.581
7.31867
8.3044
8.88956
9.26576
9.54692
9.77281
9.95432
10.0946
10.1945
10.2538
10.2718
10.2515
10.1939
10.1005
9.97247
9.81156
9.62061
9.40563
9.1715
8.93243
8.72182
8.59491
8.59072
8.68486
8.82876
8.92577
8.92792
8.8221
8.62304
8.37736
8.14909
7.94847
7.70322
550.022
513.564
7.29202
8.28123
8.88361
9.27532
9.56944
9.80746
10.0007
10.1527
10.2648
10.337
10.3684
10.3607
10.3154
10.2336
10.1167
9.96603
9.78342
9.57234
9.33665
9.08168
8.82712
8.62065
8.51812
8.52726
8.62165
8.74789
8.81324
8.78352
8.63894
8.42763
8.21344
8.01206
7.74881
550.058
513.564
7.27792
8.27088
8.88195
9.28858
9.59686
9.84753
10.0524
10.2163
10.3403
10.4248
10.4688
10.4726
10.4384
10.366
10.2574
10.1138
9.93674
9.72848
9.4933
9.23351
8.96169
8.70864
8.53189
8.46783
8.49785
8.59537
8.69521
8.72033
8.6435
8.47266
8.27716
8.08391
7.82649
550.201
513.591
7.27767
8.27301
8.89608
9.31174
9.63164
9.89642
10.1145
10.29
10.425
10.5208
10.5762
10.5905
10.566
10.5023
10.4007
10.2625
10.0889
9.88133
9.64374
9.376
9.0859
8.79811
8.56794
8.44796
8.43779
8.50099
8.60913
8.67684
8.63951
8.51024
8.33642
8.14826
7.88412
550.226
513.617
7.29258
8.28708
8.90903
9.32958
9.65986
9.93879
10.1725
10.3644
10.5153
10.625
10.6932
10.719
10.7057
10.6521
10.5583
10.4258
10.2566
10.0519
9.81367
9.53853
9.22856
8.90368
8.62131
8.45122
8.40147
8.44538
8.54542
8.63441
8.63895
8.5409
8.388
8.20697
7.93052
550.198
513.648
7.30225
8.29481
8.92112
9.34845
9.68801
9.97695
10.221
10.4256
10.5921
10.7203
10.8089
10.8554
10.8584
10.8195
10.7344
10.6081
10.444
10.242
10.0059
9.73197
9.41596
9.0673
8.73542
8.5005
8.40145
8.41235
8.50203
8.59729
8.62587
8.55995
8.42819
8.25239
7.95922
550.2
513.7
7.33138
8.31662
8.93838
9.36685
9.71348
10.0094
10.2603
10.4708
10.6436
10.7803
10.8811
10.9452
10.972
10.9606
10.906
10.8035
10.6503
10.4486
10.2098
9.9357
9.62063
9.26756
8.91184
8.62287
8.44248
8.40549
8.4623
8.56299
8.61692
8.58467
8.4727
8.30522
8.01899
550.337
513.765
7.36294
8.33775
8.95263
9.38066
9.73429
10.0376
10.2964
10.5147
10.694
10.8356
10.9403
11.0089
11.0425
11.0416
11.0068
10.9316
10.8128
10.6445
10.4213
10.1376
9.80071
9.43185
9.06043
8.74433
8.52189
8.42267
8.44318
8.53188
8.60635
8.60131
8.51277
8.36052
8.08382
550.416
513.826
7.38795
8.34826
8.95394
9.38176
9.73898
10.0498
10.3185
10.5462
10.7352
10.8855
10.9975
11.0712
11.1082
11.1093
11.0765
11.0047
10.894
10.742
10.5445
10.2915
9.96972
9.5744
9.15744
8.80235
8.55935
8.44492
8.45134
8.53519
8.61465
8.62551
8.55071
8.40414
8.11609
550.371
513.866
7.40394
8.35047
8.95497
9.38317
9.74122
10.0515
10.3239
10.5625
10.7619
10.9221
11.0449
11.1298
11.1782
11.1906
11.1679
11.1074
11.0082
10.8685
10.6831
10.443
10.1344
9.7422
9.27965
8.85462
8.57125
8.45579
8.4722
8.55836
8.636
8.64752
8.57923
8.43395
8.1206
550.24
513.887
7.40694
8.34627
8.93946
9.36703
9.72862
10.0462
10.3244
10.5642
10.7696
10.9426
11.0756
11.1703
11.2283
11.2502
11.2369
11.1871
11.1014
10.9803
10.8206
10.6161
10.3538
10.0128
9.58132
9.09805
8.68145
8.47594
8.47735
8.56984
8.65826
8.67423
8.61025
8.46148
8.13107
550.245
513.904
7.40651
8.32954
8.91444
9.33988
9.70047
10.0216
10.308
10.5585
10.7709
10.9458
11.0887
11.1956
11.2666
11.3019
11.3013
11.2652
11.1918
11.0835
10.9401
10.7611
10.5407
10.2646
9.91514
9.49621
9.03273
8.6553
8.52552
8.57585
8.66428
8.69038
8.63761
8.49766
8.18489
550.397
513.925
7.40239
8.31377
8.89114
9.31434
9.6738
9.99622
10.2855
10.5411
10.7615
10.9448
11.09
11.2028
11.2821
11.3258
11.3336
11.3064
11.2401
11.1358
10.9938
10.817
10.6054
10.3513
10.0526
9.71068
9.30961
8.90374
8.65104
8.61587
8.68581
8.72162
8.6742
8.53663
8.21307
550.414
513.936
7.39356
8.2907
8.85864
9.27686
9.637
9.96298
10.2571
10.5179
10.7436
10.9334
11.0867
11.203
11.2874
11.3419
11.3625
11.346
11.2895
11.1898
11.045
10.8574
10.6283
10.3553
10.039
9.70044
9.35081
9.01257
8.7822
8.72266
8.75941
8.77122
8.70921
8.55612
8.2021
550.266
513.933
7.37951
8.26309
8.82094
9.2345
9.59385
9.92149
10.219
10.484
10.7144
10.9092
11.0684
11.1932
11.2846
11.3428
11.3716
11.3669
11.3251
11.2401
11.107
10.9234
10.6876
10.3956
10.0498
9.68704
9.34185
9.04922
8.87199
8.81622
8.82597
8.81387
8.7385
8.57093
8.17965
550.121
513.913
7.35633
8.22773
8.77565
9.18427
9.54264
9.87205
10.1732
10.4428
10.6783
10.8781
11.0421
11.1722
11.2704
11.3376
11.3733
11.3809
11.3578
11.2946
11.1856
11.0277
10.8139
10.5348
10.1853
9.77929
9.3733
9.06708
8.89635
8.86185
8.87448
8.85444
8.77103
8.59362
8.18162
550.122
513.909
7.33917
8.19615
8.73337
9.13668
9.49371
9.82449
10.1287
10.4024
10.6421
10.8461
11.0142
11.1486
11.2513
11.3241
11.3672
11.3805
11.364
11.3147
11.2318
11.1094
10.94
10.7144
10.4276
10.069
9.64224
9.23416
8.99356
8.91969
8.91642
8.88672
8.79924
8.62358
8.2271
550.307
513.915
7.32651
8.16531
8.68942
9.086
9.44128
9.77383
10.0822
10.361
10.6059
10.8146
10.9868
11.1247
11.231
11.3072
11.3542
11.373
11.3614
11.3163
11.2391
11.1306
10.9897
10.814
10.5954
10.309
9.93539
9.51238
9.17557
9.01307
8.97108
8.93291
8.84276
8.66706
8.28121
550.409
513.919
7.31382
8.13524
8.64518
9.03306
9.38469
9.71788
10.03
10.3142
10.5647
10.7782
10.954
11.0948
11.2031
11.2806
11.328
11.346
11.3316
11.2833
11.2031
11.0946
10.9602
10.7984
10.6057
10.3671
10.0649
9.7006
9.36136
9.15092
9.06235
8.99482
8.88853
8.69976
8.29551
550.384
513.916
7.30055
8.10523
8.60043
8.97798
9.32421
9.65703
9.97316
10.2642
10.5226
10.7437
10.9262
11.0725
11.1852
11.2662
11.3165
11.3357
11.321
11.2696
11.1822
11.0619
10.9117
10.7353
10.5395
10.3164
10.0532
9.75694
9.47517
9.27091
9.15288
9.05538
8.92811
8.71775
8.28053
550.203
513.905
7.28734
8.07793
8.55776
8.92355
9.26225
9.5924
9.91068
10.2074
10.4733
10.7024
10.8928
11.0465
11.1658
11.2526
11.3085
11.3322
11.3209
11.2714
11.1835
11.0597
10.9043
10.722
10.5169
10.2872
10.0369
9.7758
9.54046
9.35622
9.22746
9.111
8.9702
8.74692
8.28421
550.178
513.894
7.27842
8.05769
8.52106
8.87317
9.20275
9.52878
9.84836
10.1507
10.4244
10.6622
10.8613
11.0233
11.1504
11.2446
11.3075
11.3374
11.3345
11.2943
11.216
11.1014
10.9538
10.7754
10.5629
10.3168
10.0527
9.80203
9.5927
9.42943
9.29694
9.16531
9.01063
8.77561
8.29853
550.231
513.882
7.27508
8.04346
8.49251
8.82971
9.1477
9.46731
9.78612
10.0926
10.3734
10.6192
10.8264
10.9962
11.1307
11.232
11.3015
11.3376
11.3404
11.3084
11.2408
11.1414
11.0138
10.8605
10.672
10.4402
10.172
9.90011
9.67316
9.50428
9.36598
9.22587
9.06393
8.82767
8.36413
550.403
513.88
7.27282
8.03794
8.47209
8.7933
9.09708
9.40922
9.72761
10.0392
10.3282
10.5829
10.7988
10.9766
11.1182
11.2258
11.3001
11.34
11.3443
11.3137
11.2485
11.1542
11.0377
10.9025
10.7399
10.54
10.2982
10.0322
9.78436
9.58896
9.43499
9.28389
9.11427
8.87228
8.40818
550.443
513.88
7.27605
8.03795
8.45821
8.7626
9.0494
9.34822
9.66335
9.97906
10.2765
10.5411
10.7667
10.9535
11.1033
11.2183
11.2981
11.342
11.3484
11.317
11.2491
11.1511
11.0312
10.8954
10.7385
10.5563
10.3476
10.1196
9.89063
9.68838
9.51534
9.34787
9.16662
8.91263
8.42859
550.403
513.881
7.28323
8.0408
8.45631
8.74422
9.01346
9.29544
9.59943
9.91647
10.2217
10.4965
10.7328
10.9299
11.0897
11.2142
11.3024
11.3561
11.3698
11.3434
11.2766
11.1753
11.0489
10.9027
10.7382
10.5523
10.3494
10.1455
9.94466
9.75419
9.57584
9.39844
9.20946
8.94757
8.44838
550.381
513.892
7.296
8.05061
8.45685
8.73897
8.9906
9.25363
9.54106
9.84992
10.1603
10.4447
10.6914
10.899
11.0692
11.2035
11.3021
11.3652
11.395
11.3874
11.3397
11.254
11.1362
10.9834
10.7936
10.58
10.3603
10.1586
9.97819
9.8093
9.63851
9.4574
9.26088
8.99026
8.47617
550.427
513.918
7.31059
8.0626
8.46456
8.73653
8.97651
9.22231
9.4913
9.78679
10.0951
10.3886
10.6458
10.8631
11.042
11.1836
11.2893
11.3609
11.3995
11.4063
11.3833
11.3305
11.2481
11.1269
10.9585
10.7453
10.5026
10.2651
10.0572
9.87754
9.70276
9.51756
9.31822
9.05246
8.56397
550.679
513.961
7.32958
8.07607
8.47445
8.7408
8.97277
9.19912
9.44563
9.72223
10.0213
10.3186
10.5864
10.8137
11.0009
11.1481
11.2573
11.3315
11.3739
11.3875
11.3763
11.3436
11.2911
11.2097
11.0853
10.9067
10.679
10.4294
10.1888
9.97855
9.78648
9.59198
9.38662
9.11307
8.62214
550.726
513.978
7.3339
8.08421
8.48458
8.7491
8.97127
9.18381
9.40869
9.66139
9.94354
10.2379
10.5143
10.7521
10.9481
11.1009
11.2124
11.2855
11.3237
11.3317
11.3169
11.288
11.2512
11.1943
11.0997
10.9639
10.7775
10.5454
10.2991
10.0719
9.86541
9.6621
9.44674
9.15745
8.63594
550.672
513.98
7.33061
8.08662
8.49134
8.75782
8.97733
9.18118
9.3817
9.60599
9.86306
10.1446
10.4244
10.6744
10.8827
11.0461
11.1649
11.2412
11.277
11.2762
11.2485
11.2069
11.1629
11.1163
11.057
10.9563
10.8059
10.6183
10.3908
10.1578
9.93585
9.7203
9.49145
9.17737
8.61614
550.455
513.956
7.31588
8.0805
8.49566
8.7687
8.98916
9.18415
9.37437
9.56659
9.79113
10.0479
10.3193
10.5785
10.8002
10.9783
11.1118
11.201
11.2464
11.2498
11.2155
11.1567
11.0863
11.0125
10.9418
10.868
10.7781
10.6336
10.4502
10.2341
10.0085
9.78298
9.54238
9.21235
8.61416
550.393
513.918
7.2961
8.07034
8.49591
8.77773
9.00464
9.19986
9.37813
9.55586
9.74039
9.9614
10.2111
10.4679
10.7001
10.894
11.0462
11.1565
11.2243
11.2482
11.23
11.1768
11.0966
11.0032
10.9017
10.8041
10.7161
10.6143
10.4648
10.277
10.0626
9.83544
9.58842
9.2461
8.62862
550.401
513.885
7.27146
8.05526
8.49534
8.78871
9.02611
9.22826
9.4043
9.56575
9.72937
9.90425
10.1156
10.3519
10.5815
10.7854
10.9542
11.0872
11.1848
11.2457
11.268
11.2509
11.188
11.079
10.9468
10.8181
10.7183
10.616
10.4903
10.3291
10.1304
9.90458
9.65385
9.31362
8.70094
550.666
513.867
7.24783
8.03703
8.48852
8.79659
9.04746
9.26166
9.44551
9.6039
9.74607
9.89157
10.0509
10.2468
10.4568
10.6561
10.8294
10.9732
11.0896
11.1802
11.244
11.2757
11.2681
11.2093
11.0978
10.9512
10.7973
10.6636
10.5343
10.3821
10.1938
9.97254
9.72425
9.38939
8.80154
550.887
513.852
7.21875
8.01698
8.48358
8.80561
9.07055
9.29983
9.49786
9.6636
9.79951
9.9176
10.0392
10.1789
10.3464
10.5263
10.6908
10.8319
10.9514
11.0544
11.1447
11.2192
11.2596
11.2483
11.1861
11.0728
10.9265
10.7727
10.6205
10.4556
10.2624
10.0416
9.79289
9.45388
8.86296
550.907
513.827
7.18422
7.99183
8.47334
8.81017
9.09014
9.33624
9.55051
9.73017
9.87311
9.98299
10.0727
10.1689
10.2883
10.4196
10.5591
10.6845
10.7934
10.8915
10.988
11.0849
11.167
11.2111
11.1876
11.1178
11.0014
10.8507
10.688
10.5127
10.3157
10.0954
9.84326
9.49227
8.87318
550.804
513.769
7.13017
7.9553
8.45756
8.81148
9.10495
9.36424
9.59383
9.79338
9.95613
10.0767
10.1579
10.2186
10.2884
10.3782
10.4725
10.5655
10.6516
10.7337
10.8208
10.9188
11.0199
11.1035
11.1438
11.1172
11.0391
10.9196
10.7595
10.5756
10.3714
10.1469
9.88872
9.52238
8.86807
550.664
513.707
7.07654
7.91943
8.43936
8.80656
9.1133
9.38673
9.63367
9.85274
10.0387
10.1833
10.281
10.338
10.3765
10.4152
10.4654
10.5234
10.5783
10.6289
10.6884
10.7617
10.85
10.9422
11.0159
11.0531
11.0282
10.937
10.8055
10.6276
10.4218
10.1935
9.92999
9.55346
8.86915
550.609
513.631
7.02075
7.88265
8.42104
8.80019
9.11515
9.39611
9.65458
9.88997
10.0991
10.2722
10.3996
10.4793
10.5218
10.5394
10.5491
10.5624
10.5801
10.6006
10.6259
10.6571
10.7063
10.78
10.8639
10.933
10.9536
10.9144
10.8063
10.6499
10.4541
10.23
9.9692
9.5923
8.89473
550.617
513.554
6.98271
7.85778
8.40675
8.79117
9.11044
9.3995
9.66952
9.92487
10.1581
10.3606
10.5208
10.6324
10.7006
10.729
10.7294
10.7181
10.705
10.6939
10.6821
10.6713
10.6709
10.6856
10.7335
10.8121
10.8739
10.8775
10.8058
10.6701
10.486
10.2678
10.0098
9.63525
8.93762
550.703
513.537
6.9755
7.84682
8.39054
8.77588
9.09759
9.39073
9.67078
9.94257
10.2085
10.4551
10.6622
10.8163
10.9152
10.9596
10.9619
10.942
10.9146
10.8879
10.8524
10.8037
10.7451
10.7066
10.7089
10.7352
10.7779
10.8016
10.7754
10.6718
10.508
10.3012
10.0509
9.68596
9.00276
550.863
513.552
6.97848
7.84801
8.38618
8.76175
9.07563
9.36656
9.65369
9.94819
10.2471
10.534
10.7875
10.9889
11.1295
11.2059
11.2268
11.2125
11.1825
11.1479
11.1005
11.0347
10.9495
10.8543
10.7715
10.7504
10.7753
10.7934
10.7755
10.6888
10.5425
10.3474
10.1069
9.75607
9.09834
551.101
513.663
7.04696
7.87816
8.38693
8.75197
9.0617
9.34963
9.63572
9.9363
10.2567
10.5822
10.8807
11.125
11.3058
11.4172
11.4671
11.4724
11.455
11.423
11.3734
11.3016
11.2046
11.0844
10.9569
10.8626
10.8144
10.8033
10.7794
10.703
10.5689
10.3836
10.154
9.82127
9.19505
551.305
513.81
7.10857
7.89881
8.38093
8.72743
9.02361
9.30133
9.58397
9.8929
10.2363
10.5964
10.937
11.2342
11.4548
11.5936
11.6688
11.696
11.6937
11.6696
11.6241
11.5555
11.4604
11.337
11.1935
11.0544
10.9468
10.8806
10.8262
10.7461
10.6146
10.4344
10.2105
9.88262
9.26595
551.345
513.977
7.16683
7.90738
8.36395
8.69081
8.96931
9.23103
9.5005
9.80512
10.1622
10.556
10.9393
11.2653
11.5182
11.6993
11.808
11.8614
11.8766
11.8618
11.8203
11.7536
11.6608
11.541
11.3997
11.2513
11.1149
11.006
10.9158
10.8109
10.6677
10.484
10.2566
9.9195
9.27347
551.28
514
7.17307
7.90236
8.33473
8.64488
8.90897
9.14865
9.38475
9.65107
9.98191
10.3811
10.8046
11.1888
11.4947
11.7155
11.8612
11.9485
11.987
11.9875
11.9522
11.8853
11.7887
11.6653
11.5282
11.389
11.2552
11.1323
11.0151
10.8832
10.7205
10.5243
10.2848
9.92911
9.24545
550.99
513.953
7.14279
7.86033
8.28918
8.59654
8.85145
9.06869
9.26226
9.46399
9.71719
10.0611
10.4842
10.9185
11.2965
11.5864
11.7932
11.934
12.0169
12.0456
12.0275
11.9665
11.8677
11.7391
11.6006
11.4658
11.3392
11.2178
11.0917
10.9458
10.7695
10.5617
10.3124
9.94122
9.21633
550.866
513.793
7.0613
7.80635
8.24725
8.5601
8.81772
9.03481
9.21311
9.36585
9.53964
9.78306
10.1338
10.557
10.9788
11.3384
11.6196
11.8303
11.9729
12.0484
12.0666
12.0287
11.9409
11.8129
11.6696
11.5296
11.4021
11.2812
11.1516
10.9984
10.8144
10.6003
10.3459
9.96423
9.22021
550.869
513.719
7.0372
7.78027
8.22561
8.54618
8.81174
9.03185
9.20921
9.35247
9.47917
9.64252
9.90125
10.2551
10.6611
11.0536
11.3915
11.6633
11.8673
12.005
12.0722
12.0808
12.0263
11.9163
11.7749
11.6247
11.4847
11.3563
11.2214
11.0619
10.8706
10.6491
10.3909
10.0091
9.26652
551.025
513.694
7.00866
7.75267
8.20662
8.5405
8.82079
9.05217
9.2313
9.36333
9.46809
9.5779
9.73719
10.0088
10.3747
10.7711
11.1433
11.4608
11.7147
11.9065
12.0347
12.0899
12.0881
12.0222
11.9029
11.7523
11.593
11.4407
11.2903
11.1219
10.924
10.6986
10.4416
10.0651
9.34289
551.207
513.664
6.97959
7.72497
8.18598
8.53262
8.82786
9.07464
9.26725
9.40528
9.49927
9.57544
9.67888
9.85926
10.1501
10.5145
10.8942
11.2406
11.5315
11.7648
11.9397
12.0518
12.0892
12.0755
12.0011
11.8731
11.7143
11.5449
11.374
11.1908
10.9842
10.7535
10.4889
10.0996
9.36585
551.228
513.64
6.95349
7.69758
8.16478
8.52503
8.8396
9.10557
9.31508
9.46409
9.55897
9.6177
9.67457
9.7823
9.99092
10.3028
10.6683
11.0277
11.342
11.6023
11.8093
11.9609
12.0534
12.0735
12.037
11.9443
11.8007
11.6302
11.4469
11.2496
11.0325
10.7931
10.5203
10.1179
9.3654
551.149
513.616
6.92452
7.66817
8.14169
8.51556
8.84886
9.13937
9.37127
9.53844
9.6439
9.69968
9.72984
9.77604
9.8978
10.1362
10.467
10.8255
11.1526
11.4297
11.6575
11.8363
11.9635
12.0315
12.0332
11.9678
11.8534
11.6914
11.5018
11.2931
11.0666
10.8213
10.5382
10.1168
9.31855
550.961
513.574
6.88789
7.63186
8.11106
8.49759
8.84988
9.16285
9.41786
9.60706
9.73116
9.7979
9.82232
9.83267
9.88367
10.033
10.3008
10.6343
10.9608
11.2473
11.4892
11.6872
11.8408
11.942
11.9815
11.9596
11.8705
11.7332
11.5519
11.3397
11.1055
10.8528
10.5597
10.1212
9.31205
550.928
513.533
6.85066
7.59244
8.07559
8.4743
8.84723
9.18126
9.45952
9.67188
9.81753
9.90214
9.93321
9.9309
9.93578
10.0104
10.2007
10.4875
10.7977
11.0841
11.3328
11.5429
11.7136
11.8374
11.907
11.917
11.865
11.7514
11.5851
11.3799
11.1464
10.8893
10.5894
10.1422
9.31657
550.952
513.501
6.81347
7.55103
8.03689
8.44548
8.83641
9.19442
9.49674
9.7327
9.90052
10.0052
10.0505
10.0489
10.0281
10.0408
10.1529
10.3798
10.6598
10.9399
11.1935
11.4148
11.6013
11.7457
11.8402
11.8779
11.8544
11.7681
11.6212
11.4238
11.1917
10.9316
10.6273
10.1767
9.35649
551.076
513.466
6.77725
7.50851
7.99506
8.41329
8.82163
9.1989
9.52889
9.78993
9.98155
10.109
10.1749
10.1844
10.1547
10.127
10.1655
10.3216
10.5589
10.8211
11.0727
11.3012
11.501
11.6643
11.7818
11.8433
11.8428
11.7755
11.6484
11.4637
11.2356
10.9743
10.6672
10.2113
9.38516
551.109
513.431
6.74224
7.46337
7.94681
8.37219
8.79833
9.20024
9.55008
9.83187
10.0454
10.1971
10.2885
10.323
10.3087
10.2678
10.2534
10.3293
10.4966
10.7136
10.9495
11.1799
11.3905
11.571
11.7107
11.7973
11.8203
11.7751
11.6625
11.4897
11.267
11.0049
10.6949
10.237
9.40859
551.115
513.418
6.71616
7.42249
7.90117
8.33323
8.77586
9.19938
9.57211
9.87439
10.1069
10.2768
10.3888
10.4493
10.4639
10.4432
10.4189
10.4428
10.5379
10.7047
10.8943
11.093
11.2892
11.4693
11.6216
11.7306
11.7808
11.7617
11.6696
11.5134
11.3029
11.0445
10.7321
10.2714
9.43568
551.162
513.428
6.69678
7.38183
7.85319
8.29103
8.75011
9.19487
9.58727
9.90591
10.153
10.3362
10.463
10.5431
10.5838
10.5938
10.5925
10.6115
10.6672
10.768
10.9188
11.0963
11.2713
11.4273
11.5622
11.6695
11.7323
11.7349
11.6737
11.5404
11.3465
11.099
10.79
10.3368
9.51956
551.387
513.472
6.68888
7.34558
7.80766
8.25143
8.72888
9.19628
9.61056
9.94438
10.2015
10.3906
10.522
10.6083
10.6607
10.6905
10.7152
10.7586
10.824
10.9146
11.0305
11.1647
11.3033
11.4402
11.5638
11.6631
11.7238
11.7342
11.6831
11.5643
11.3836
11.1474
10.8464
10.3996
9.59024
551.49
513.524
6.67771
7.30238
7.75245
8.20052
8.69975
9.19513
9.62793
9.97586
10.2416
10.434
10.5649
10.6488
10.6992
10.7317
10.7694
10.8391
10.9345
11.0428
11.1568
11.2752
11.3915
11.5022
11.6013
11.6813
11.7358
11.7475
11.7032
11.592
11.4194
11.1909
10.8932
10.4418
9.6272
551.498
513.565
6.65841
7.25467
7.6916
8.14155
8.65964
9.18095
9.63783
10.0058
10.2826
10.4788
10.6077
10.6847
10.7236
10.7417
10.7673
10.837
10.9486
11.086
11.2286
11.3628
11.478
11.5752
11.6565
11.721
11.7614
11.7658
11.7178
11.6096
11.4435
11.2206
10.9254
10.4699
9.62956
551.418
513.579
6.62885
7.20023
7.62238
8.07133
8.60678
9.15563
9.63877
10.0294
10.321
10.526
10.6578
10.7312
10.7581
10.7559
10.7544
10.8007
10.9079
11.0559
11.2186
11.3705
11.5089
11.623
11.7112
11.7723
11.8017
11.7941
11.7372
11.6256
11.4599
11.2389
10.9421
10.4746
9.60914
551.257
513.577
6.59418
7.14595
7.55223
7.99205
8.5381
9.11354
9.62876
10.0437
10.3551
10.5758
10.7184
10.7966
10.8201
10.8025
10.7663
10.7626
10.8324
10.9706
11.1411
11.3255
11.4904
11.6202
11.7154
11.7846
11.8177
11.8095
11.7506
11.6379
11.4729
11.2519
10.9523
10.4776
9.57783
551.119
513.558
6.55842
7.09369
7.48423
7.9098
8.45936
9.05708
9.60281
10.0457
10.3853
10.6295
10.7917
10.8849
10.9166
10.8973
10.8362
10.7671
10.7587
10.8469
11.0165
11.2115
11.3926
11.5564
11.6906
11.7781
11.8151
11.8081
11.7503
11.6416
11.4824
11.2671
10.972
10.4928
9.58422
551.089
513.535
6.52631
7.04662
7.42006
7.8289
8.37351
8.99091
9.57002
10.0471
10.4151
10.6868
10.8753
10.9927
11.0446
11.041
10.9817
10.8744
10.7703
10.7608
10.8608
11.0483
11.2528
11.4385
11.5908
11.7059
11.7755
11.7868
11.7405
11.6381
11.4834
11.2745
10.9865
10.5126
9.59573
551.093
513.509
6.49855
7.00627
7.36106
7.74744
8.27488
8.90483
9.51621
10.0293
10.4324
10.7378
10.9594
11.1093
11.194
11.2166
11.1783
11.0732
10.9169
10.7863
10.7862
10.9107
11.1101
11.3114
11.4885
11.6284
11.7201
11.7534
11.7252
11.636
11.4916
11.2907
11.0112
10.5512
9.64843
551.184
513.479
6.47572
6.9736
7.30874
7.66661
8.16518
8.799
9.44039
9.99228
10.4339
10.7784
11.0373
11.2241
11.3449
11.4015
11.398
11.3238
11.1681
10.9551
10.8096
10.8369
10.9999
11.2068
11.3949
11.5467
11.654
11.7079
11.7013
11.6302
11.4969
11.3041
11.0324
10.5822
9.68775
551.214
513.449
6.46089
6.95044
7.26746
7.5953
8.05298
8.66909
9.33103
9.92096
10.4033
10.7855
11.0843
11.3115
11.4746
11.5765
11.615
11.5867
11.4739
11.2644
11.0075
10.8547
10.9194
11.0952
11.3074
11.4887
11.6157
11.6829
11.6877
11.6316
11.5101
11.3261
11.0614
10.6177
9.72646
551.308
513.444
6.45805
6.93687
7.23796
7.53966
7.95893
8.53884
9.20512
9.82471
10.3447
10.7656
11.1021
11.3688
11.5734
11.7183
11.8046
11.8307
11.7848
11.6435
11.4059
11.1373
10.9815
11.0455
11.194
11.3744
11.5351
11.6404
11.674
11.6401
11.5339
11.3624
11.1104
10.6852
9.82467
551.588
513.464
6.46477
6.93167
7.21782
7.49569
7.87764
8.41988
9.08472
9.72708
10.2766
10.7267
11.0929
11.3904
11.6244
11.7978
11.918
11.9892
12.0033
11.9405
11.7817
11.5421
11.2941
11.1458
11.2003
11.3343
11.4752
11.5872
11.6476
11.6407
11.557
11.4004
11.1609
10.7518
9.92062
551.82
513.501
6.47594
6.93154
7.20441
7.46008
7.80612
8.30881
8.96468
9.62323
10.1969
10.6713
11.0601
11.3779
11.6298
11.8212
11.9626
12.0625