/*--------------------------------*- C++ -*----------------------------------*\
| =========                 |                                                 |
| \\      /  F ield         | OpenFOAM: The Open Source CFD Toolbox           |
|  \\    /   O peration     | Version:  2.0.x                                 |
|   \\  /    A nd           | Web:      www.OpenFOAM.org                      |
|    \\/     M anipulation  |                                                 |
\*---------------------------------------------------------------------------*/
FoamFile
{
    version     2.0;
    format      ascii;
    class       surfaceScalarField;
    location    "950";
    object      phi;
}
// * * * * * * * * * * * * * * * * * * * * * * * * * * * * * * * * * * * * * //

dimensions      [1 0 -1 0 0 0 0];

internalField   nonuniform List<scalar> 
228225
(
-2.708e-06
1.55876e-06
1.05166e-06
-6.33629e-06
1.71128e-06
1.91704e-06
-9.06545e-06
5.90955e-07
2.13824e-06
-1.02005e-05
-1.03641e-06
2.17149e-06
-9.40182e-06
-2.9194e-06
2.12077e-06
-7.01604e-06
-4.44045e-06
2.05473e-06
-3.43593e-06
-5.59345e-06
2.01339e-06
9.55624e-07
-6.38933e-06
1.99783e-06
5.8815e-06
-6.89262e-06
1.9668e-06
1.1115e-05
-7.17305e-06
1.93959e-06
1.6463e-05
-7.2647e-06
1.91677e-06
2.17481e-05
-7.15328e-06
1.86823e-06
2.69798e-05
-7.03513e-06
1.80346e-06
3.19692e-05
-6.75357e-06
1.76423e-06
3.65773e-05
-6.35647e-06
1.74845e-06
4.08103e-05
-5.97617e-06
1.7432e-06
4.45606e-05
-5.48561e-06
1.73529e-06
4.77414e-05
-4.89519e-06
1.71444e-06
5.03046e-05
-4.24631e-06
1.68315e-06
5.23096e-05
-3.65394e-06
1.64895e-06
5.35248e-05
-2.84561e-06
1.63042e-06
5.41752e-05
-2.25391e-06
1.60354e-06
5.41273e-05
-1.53661e-06
1.58446e-06
5.33776e-05
-8.18953e-07
1.56869e-06
5.19287e-05
-1.00774e-07
1.54966e-06
4.97769e-05
5.99894e-07
1.55189e-06
4.67374e-05
1.48635e-06
1.55312e-06
4.31483e-05
2.04252e-06
1.54656e-06
3.87644e-05
2.8354e-06
1.54835e-06
3.36814e-05
3.53312e-06
1.54989e-06
2.79088e-05
4.20569e-06
1.56676e-06
2.14644e-05
4.8571e-06
1.58718e-06
1.43378e-05
5.52953e-06
1.59694e-06
6.61791e-06
6.20512e-06
1.5145e-06
5.70598e-06
9.11931e-07
2.48862e-07
5.74809e-07
7.35073e-07
8.33291e-07
-3.0709e-07
1.43392e-06
2.29152e-06
-2.50817e-06
1.64088e-06
4.79171e-06
-5.19038e-06
1.65377e-06
8.13146e-06
-7.80429e-06
1.54513e-06
1.18599e-05
-9.64924e-06
1.48036e-06
1.57143e-05
-1.08296e-05
1.38175e-06
1.9561e-05
-1.14891e-05
1.25302e-06
2.32825e-05
-1.17784e-05
1.16423e-06
2.68504e-05
-1.18546e-05
1.11364e-06
3.01953e-05
-1.16969e-05
1.08739e-06
3.32523e-05
-1.13046e-05
1.0943e-06
3.59637e-05
-1.08785e-05
1.13211e-06
3.83902e-05
-1.03289e-05
1.14878e-06
4.05138e-05
-9.63307e-06
1.15302e-06
4.21005e-05
-8.69199e-06
1.12912e-06
4.32741e-05
-7.76361e-06
1.1044e-06
4.40805e-05
-6.78911e-06
1.08751e-06
4.45532e-05
-5.79806e-06
1.07908e-06
4.46457e-05
-4.81161e-06
1.06515e-06
4.45478e-05
-3.80151e-06
1.05378e-06
4.40326e-05
-2.78534e-06
1.04671e-06
4.31888e-05
-1.73927e-06
1.04642e-06
4.18579e-05
-5.43621e-07
1.05562e-06
3.99952e-05
6.84056e-07
1.07787e-06
3.78863e-05
1.60115e-06
1.10767e-06
3.52508e-05
2.95789e-06
1.16392e-06
3.20997e-05
3.97287e-06
1.22072e-06
2.86086e-05
5.04892e-06
1.27758e-06
2.46075e-05
6.1892e-06
1.34507e-06
2.00653e-05
7.31594e-06
1.43192e-06
1.49773e-05
8.42778e-06
1.51735e-06
9.39581e-06
9.54229e-06
1.56876e-06
3.83722e-06
1.03053e-05
1.45837e-06
8.68959e-06
8.53614e-07
5.77364e-07
-4.66499e-07
4.64005e-07
2.72169e-06
-3.30211e-06
8.50756e-07
6.15103e-06
-6.86764e-06
9.30187e-07
1.01438e-05
-1.00243e-05
8.41203e-07
1.37694e-05
-1.21727e-05
7.42865e-07
1.68421e-05
-1.33985e-05
6.76513e-07
1.9312e-05
-1.3992e-05
6.92564e-07
2.12407e-05
-1.41839e-05
7.6618e-07
2.2793e-05
-1.41286e-05
7.97964e-07
2.40514e-05
-1.39333e-05
8.20312e-07
2.50965e-05
-1.35665e-05
8.2455e-07
2.60777e-05
-1.30964e-05
8.1054e-07
2.69368e-05
-1.25123e-05
7.74698e-07
2.76593e-05
-1.17897e-05
7.3839e-07
2.82584e-05
-1.09312e-05
6.99027e-07
2.87778e-05
-9.89321e-06
6.81885e-07
2.91231e-05
-8.76721e-06
6.58307e-07
2.93147e-05
-7.61493e-06
6.34335e-07
2.93305e-05
-6.41582e-06
6.01896e-07
2.91266e-05
-5.18138e-06
5.73777e-07
2.8707e-05
-3.93306e-06
5.51083e-07
2.80528e-05
-2.66421e-06
5.33116e-07
2.70732e-05
-1.28429e-06
5.24657e-07
2.57087e-05
2.95084e-07
5.2574e-07
2.42857e-05
1.57476e-06
5.32287e-07
2.26356e-05
2.69786e-06
5.53401e-07
2.09856e-05
4.01532e-06
5.92538e-07
1.89843e-05
5.32228e-06
6.51866e-07
1.67224e-05
6.5575e-06
7.53241e-07
1.41395e-05
7.90616e-06
8.65796e-07
1.12268e-05
9.26459e-06
9.64049e-07
7.96144e-06
1.06371e-05
1.05589e-06
4.53079e-06
1.18616e-05
1.11128e-06
1.44943e-06
1.2349e-05
1.0376e-06
9.58842e-06
5.50601e-07
8.44649e-07
-1.57295e-06
2.61791e-07
3.23653e-06
-6.10457e-06
4.10569e-07
6.23563e-06
-1.02774e-05
4.10613e-07
8.96799e-06
-1.31702e-05
4.13599e-07
1.11173e-05
-1.47817e-05
4.59632e-07
1.27584e-05
-1.55713e-05
5.31662e-07
1.40824e-05
-1.59099e-05
5.93921e-07
1.52352e-05
-1.59649e-05
6.28237e-07
1.63143e-05
-1.58657e-05
6.57969e-07
1.72936e-05
-1.55824e-05
6.69805e-07
1.81952e-05
-1.51347e-05
6.66552e-07
1.89704e-05
-1.4518e-05
6.46459e-07
1.95749e-05
-1.37266e-05
6.09693e-07
2.00093e-05
-1.2793e-05
5.68916e-07
2.02845e-05
-1.17311e-05
5.24769e-07
2.04764e-05
-1.05621e-05
4.76913e-07
2.05297e-05
-9.25898e-06
4.38532e-07
2.04101e-05
-7.89613e-06
4.00808e-07
2.00903e-05
-6.47115e-06
3.75147e-07
1.95771e-05
-5.02701e-06
3.58895e-07
1.88701e-05
-3.57553e-06
3.49474e-07
1.78943e-05
-2.0339e-06
3.45552e-07
1.65337e-05
-2.6866e-07
3.45049e-07
1.53061e-05
1.18006e-06
3.4273e-07
1.41933e-05
2.34357e-06
3.44066e-07
1.28826e-05
3.65814e-06
3.50489e-07
1.15685e-05
4.9428e-06
3.86683e-07
1.02369e-05
6.21333e-06
4.4066e-07
8.75899e-06
7.53095e-06
5.04562e-07
7.20902e-06
8.88139e-06
5.74863e-07
5.5209e-06
1.03002e-05
6.52636e-07
3.66933e-06
1.17683e-05
7.20493e-07
1.8401e-06
1.29333e-05
7.57682e-07
3.19187e-07
1.31789e-05
6.91236e-07
9.61344e-06
2.94177e-07
1.18675e-06
-2.87299e-06
1.13321e-07
3.65792e-06
-8.7731e-06
1.97393e-07
6.23671e-06
-1.31095e-05
2.5335e-07
8.43953e-06
-1.56802e-05
3.07175e-07
1.03056e-05
-1.69932e-05
3.45539e-07
1.19644e-05
-1.76024e-05
3.72267e-07
1.34825e-05
-1.7816e-05
3.88014e-07
1.48799e-05
-1.77662e-05
4.03906e-07
1.6113e-05
-1.75138e-05
4.15026e-07
1.71692e-05
-1.70565e-05
4.17866e-07
1.80254e-05
-1.64047e-05
4.13912e-07
1.86347e-05
-1.55337e-05
4.06394e-07
1.8964e-05
-1.44521e-05
3.96366e-07
1.90554e-05
-1.32541e-05
3.69718e-07
1.89491e-05
-1.1959e-05
3.34178e-07
1.86215e-05
-1.05296e-05
2.95122e-07
1.81247e-05
-9.01366e-06
2.51594e-07
1.74598e-05
-7.43473e-06
2.03518e-07
1.66542e-05
-5.82683e-06
1.61375e-07
1.57065e-05
-4.21017e-06
1.30949e-07
1.45766e-05
-2.56146e-06
1.15925e-07
1.32707e-05
-8.48398e-07
1.20426e-07
1.21166e-05
7.37637e-07
1.47924e-07
1.11328e-05
1.99738e-06
1.66533e-07
9.97345e-06
3.31507e-06
1.87902e-07
8.85268e-06
4.57051e-06
2.08471e-07
7.77074e-06
5.79506e-06
2.29748e-07
6.72521e-06
6.99512e-06
2.63801e-07
5.72079e-06
8.22764e-06
3.07799e-07
4.68192e-06
9.55367e-06
3.66668e-07
3.52015e-06
1.1027e-05
4.35053e-07
2.24534e-06
1.25559e-05
4.87281e-07
1.02674e-06
1.36423e-05
5.09672e-07
6.70274e-08
1.36909e-05
4.47847e-07
9.51979e-06
1.60676e-07
1.17753e-06
-4.10877e-06
5.83369e-08
3.12671e-06
-1.08695e-05
1.47275e-07
4.88e-06
-1.50902e-05
2.27532e-07
6.222e-06
-1.73131e-05
2.90965e-07
7.24909e-06
-1.83545e-05
3.34224e-07
8.07125e-06
-1.87883e-05
3.63812e-07
8.7402e-06
-1.88673e-05
3.82364e-07
9.29017e-06
-1.87109e-05
3.94747e-07
9.69411e-06
-1.83191e-05
4.01354e-07
9.95617e-06
-1.77201e-05
4.01576e-07
1.00817e-05
-1.69238e-05
3.93621e-07
1.01129e-05
-1.59404e-05
3.75535e-07
1.00941e-05
-1.4779e-05
3.45648e-07
9.96558e-06
-1.34331e-05
3.07529e-07
9.68914e-06
-1.19457e-05
2.63188e-07
9.33046e-06
-1.03685e-05
1.9764e-07
8.8846e-06
-8.68729e-06
1.19544e-07
8.35985e-06
-6.9499e-06
3.99928e-08
7.76541e-06
-5.20509e-06
-2.72222e-08
7.11525e-06
-3.4834e-06
-7.6513e-08
6.43093e-06
-1.7784e-06
-9.86297e-08
5.7853e-06
-1.16334e-07
-8.63278e-08
5.41353e-06
1.17233e-06
-6.28135e-08
4.90985e-06
2.52911e-06
-2.79266e-08
4.37446e-06
3.84979e-06
7.95558e-10
3.85763e-06
5.05877e-06
2.86994e-08
3.40699e-06
6.1889e-06
5.69324e-08
3.00512e-06
7.30662e-06
9.05088e-08
2.60506e-06
8.49446e-06
1.33387e-07
2.14001e-06
9.83979e-06
1.79081e-07
1.54255e-06
1.13997e-05
2.24919e-07
8.21308e-07
1.30038e-05
2.73461e-07
1.44404e-07
1.40291e-05
2.90289e-07
-2.97256e-07
1.38996e-05
2.33197e-07
9.19987e-06
2.2672e-08
7.60123e-07
-4.9188e-06
5.00614e-08
1.67212e-06
-1.19428e-05
1.61436e-07
2.31046e-06
-1.59764e-05
2.47866e-07
2.69549e-06
-1.80039e-05
3.05802e-07
2.9598e-06
-1.89568e-05
3.38055e-07
3.18104e-06
-1.93634e-05
3.53894e-07
3.37384e-06
-1.94218e-05
3.61727e-07
3.51372e-06
-1.92158e-05
3.65135e-07
3.604e-06
-1.87752e-05
3.65893e-07
3.64136e-06
-1.81206e-05
3.63221e-07
3.62473e-06
-1.72631e-05
3.56035e-07
3.55372e-06
-1.62126e-05
3.43308e-07
3.43e-06
-1.4979e-05
3.23808e-07
3.26821e-06
-1.35641e-05
2.92907e-07
3.06766e-06
-1.19914e-05
2.46389e-07
2.8011e-06
-1.03003e-05
1.98515e-07
2.49137e-06
-8.52657e-06
1.49123e-07
2.17826e-06
-6.71346e-06
7.67913e-08
1.88259e-06
-4.90241e-06
-6.86756e-09
1.61475e-06
-3.13391e-06
-8.1487e-08
1.42958e-06
-1.4605e-06
-1.32565e-07
1.41254e-06
5.45664e-08
-1.53691e-07
1.33647e-06
1.39817e-06
-1.49615e-07
1.29225e-06
2.70908e-06
-1.35583e-07
1.30825e-06
3.95102e-06
-1.17079e-07
1.35496e-06
5.11119e-06
-9.89818e-08
1.41542e-06
6.20592e-06
-7.73242e-08
1.46298e-06
7.30797e-06
-4.87449e-08
1.44118e-06
8.5221e-06
-5.68845e-09
1.28515e-06
9.95321e-06
4.27696e-08
9.47417e-07
1.16425e-05
9.4999e-08
4.77716e-07
1.33368e-05
1.3685e-07
3.09061e-08
1.43227e-05
1.53325e-07
-2.29746e-07
1.4052e-05
1.08526e-07
8.9949e-06
-2.47675e-08
2.10455e-07
-5.19922e-06
7.01483e-08
2.95607e-07
-1.22048e-05
1.76949e-07
2.28259e-07
-1.61644e-05
2.55466e-07
3.26463e-08
-1.81311e-05
3.22911e-07
-2.43222e-07
-1.9052e-05
3.71178e-07
-5.51127e-07
-1.94547e-05
3.99295e-07
-8.56245e-07
-1.953e-05
4.13466e-07
-1.13939e-06
-1.93523e-05
4.19714e-07
-1.38395e-06
-1.89517e-05
4.21122e-07
-1.58079e-06
-1.83433e-05
4.19614e-07
-1.72272e-06
-1.75366e-05
4.15492e-07
-1.80347e-06
-1.65394e-05
4.07619e-07
-1.81979e-06
-1.53566e-05
3.94001e-07
-1.76667e-06
-1.39901e-05
3.72968e-07
-1.65319e-06
-1.24461e-05
3.41331e-07
-1.49841e-06
-1.07478e-05
2.9276e-07
-1.30715e-06
-8.94008e-06
2.22383e-07
-1.10747e-06
-7.05904e-06
1.46043e-07
-9.09325e-07
-5.16144e-06
6.10529e-08
-7.1736e-07
-3.30251e-06
-2.31963e-08
-5.33181e-07
-1.5523e-06
-9.21953e-08
-3.58424e-07
1.48676e-08
-1.34881e-07
-2.17127e-07
1.40922e-06
-1.52181e-07
-4.27914e-08
2.68852e-06
-1.53602e-07
1.86372e-07
3.86756e-06
-1.45545e-07
4.4798e-07
4.9824e-06
-1.32685e-07
7.01927e-07
6.06852e-06
-1.16414e-07
9.0228e-07
7.20354e-06
-9.57683e-08
1.00218e-06
8.49269e-06
-7.03144e-08
9.56854e-07
1.00315e-05
-3.28462e-08
7.2932e-07
1.186e-05
1.02032e-08
3.7884e-07
1.36433e-05
4.4116e-08
4.41503e-08
1.45985e-05
5.91096e-08
-1.458e-07
1.4214e-05
2.81442e-08
8.89341e-06
-4.43039e-08
-1.45468e-07
-5.13918e-06
8.56272e-08
-3.51201e-07
-1.21752e-05
1.76341e-07
-5.60693e-07
-1.61915e-05
2.36766e-07
-7.92371e-07
-1.82e-05
3.00661e-07
-1.05353e-06
-1.91464e-05
3.5558e-07
-1.32223e-06
-1.95752e-05
3.89231e-07
-1.57282e-06
-1.96865e-05
4.07114e-07
-1.78441e-06
-1.95559e-05
4.15205e-07
-1.94247e-06
-1.92113e-05
4.17696e-07
-2.03698e-06
-1.8667e-05
4.1825e-07
-2.0614e-06
-1.79317e-05
4.19604e-07
-2.00094e-06
-1.70228e-05
4.23017e-07
-1.87037e-06
-1.59165e-05
4.29386e-07
-1.69416e-06
-1.46058e-05
4.39558e-07
-1.46888e-06
-1.31229e-05
4.51658e-07
-1.18306e-06
-1.14932e-05
4.5978e-07
-8.48378e-07
-9.72798e-06
4.53365e-07
-4.66637e-07
-7.8598e-06
4.19194e-07
-4.45516e-08
-5.93553e-06
3.52198e-07
3.80166e-07
-3.98372e-06
2.56722e-07
7.33769e-07
-2.0519e-06
1.46233e-07
9.31988e-07
-2.23607e-07
4.04919e-08
1.12422e-06
1.25593e-06
-3.87327e-08
1.25516e-06
2.64599e-06
-8.82255e-08
1.34826e-06
3.87682e-06
-1.02171e-07
1.44964e-06
4.98456e-06
-1.03357e-07
1.54947e-06
6.06743e-06
-9.85533e-08
1.61564e-06
7.22574e-06
-8.81871e-08
1.61363e-06
8.56837e-06
-7.34963e-08
1.48832e-06
1.021e-05
-5.29677e-08
1.21336e-06
1.21583e-05
-2.31354e-08
8.25216e-07
1.40255e-05
6.06635e-09
4.24972e-07
1.49778e-05
2.10982e-08
1.05383e-07
1.45301e-05
3.74072e-09
9.02524e-06
-2.64298e-08
-6.80969e-08
-5.13133e-06
6.04283e-08
-5.58557e-08
-1.22954e-05
1.08087e-07
7.20693e-08
-1.64624e-05
1.43023e-07
2.28599e-07
-1.85601e-05
2.03652e-07
3.53733e-07
-1.95423e-05
2.70819e-07
4.51551e-07
-1.99897e-05
3.16759e-07
5.44514e-07
-2.01241e-05
3.44637e-07
6.55619e-07
-2.00246e-05
3.57634e-07
7.9641e-07
-1.97115e-05
3.59546e-07
9.70157e-07
-1.91952e-05
3.54498e-07
1.16492e-06
-1.8472e-05
3.45555e-07
1.32745e-06
-1.75184e-05
3.33144e-07
1.42271e-06
-1.63334e-05
3.21792e-07
1.47778e-06
-1.49795e-05
3.18742e-07
1.54291e-06
-1.35158e-05
3.27818e-07
1.67239e-06
-1.19766e-05
3.53985e-07
1.90858e-06
-1.0363e-05
3.98917e-07
2.24688e-06
-8.64364e-06
4.45688e-07
2.64566e-06
-6.80201e-06
4.67878e-07
3.05308e-06
-4.84678e-06
4.55842e-07
3.39416e-06
-2.79496e-06
4.02211e-07
3.5783e-06
-7.16563e-07
3.09037e-07
3.52301e-06
1.09635e-06
2.1509e-07
3.45821e-06
2.58683e-06
1.24181e-07
3.31022e-06
3.98665e-06
3.83443e-08
3.1137e-06
5.19408e-06
-1.28138e-08
2.91668e-06
6.30572e-06
-4.10952e-08
2.73498e-06
7.46195e-06
-5.43284e-08
2.54465e-06
8.81445e-06
-5.5549e-08
2.27113e-06
1.05258e-05
-4.20914e-08
1.87747e-06
1.25726e-05
-2.04695e-08
1.36846e-06
1.45296e-05
5.05268e-09
8.13041e-07
1.55131e-05
2.02784e-08
3.00499e-07
1.50321e-05
1.0808e-08
9.32651e-06
-7.67688e-10
9.84582e-08
-5.26293e-06
3.3298e-08
4.97743e-07
-1.27522e-05
5.75988e-08
1.08368e-06
-1.71303e-05
8.20142e-08
1.69557e-06
-1.92979e-05
1.2599e-07
2.24888e-06
-2.02784e-05
1.82871e-07
2.72779e-06
-2.06985e-05
2.29956e-07
3.13222e-06
-2.0796e-05
2.67526e-07
3.47727e-06
-2.06614e-05
2.91829e-07
3.75835e-06
-2.02954e-05
3.02802e-07
3.96843e-06
-1.97086e-05
3.03426e-07
4.09188e-06
-1.88924e-05
2.97023e-07
4.07937e-06
-1.77967e-05
2.90848e-07
3.95864e-06
-1.64977e-05
2.8513e-07
3.78839e-06
-1.50862e-05
2.77052e-07
3.6112e-06
-1.36071e-05
2.68649e-07
3.47439e-06
-1.21037e-05
2.64081e-07
3.439e-06
-1.05955e-05
2.68091e-07
3.53567e-06
-9.03068e-06
2.90502e-07
3.74607e-06
-7.34503e-06
3.32778e-07
4.04328e-06
-5.52126e-06
3.77455e-07
4.37878e-06
-3.53561e-06
4.05366e-07
4.65039e-06
-1.38506e-06
3.97102e-07
4.62278e-06
7.82595e-07
3.41567e-07
4.5966e-06
2.34456e-06
2.68639e-07
4.45086e-06
3.95013e-06
1.82465e-07
4.20228e-06
5.3452e-06
9.76262e-08
3.8839e-06
6.58495e-06
3.93282e-08
3.52943e-06
7.81324e-06
3.35872e-09
3.1462e-06
9.21337e-06
-1.55016e-08
2.72667e-06
1.0965e-05
-1.94639e-08
2.2218e-06
1.30878e-05
-1.01559e-08
1.61526e-06
1.51268e-05
9.52927e-09
9.56662e-07
1.61438e-05
2.81674e-08
3.41745e-07
1.56229e-05
2.44238e-08
9.65469e-06
1.35732e-08
3.67483e-07
-5.64285e-06
1.2523e-08
1.12871e-06
-1.35596e-05
4.62675e-08
1.98844e-06
-1.80721e-05
8.22046e-08
2.78486e-06
-2.02123e-05
1.17974e-07
3.47059e-06
-2.11243e-05
1.60245e-07
4.03818e-06
-2.14657e-05
1.99631e-07
4.47781e-06
-2.14719e-05
2.36318e-07
4.78342e-06
-2.12322e-05
2.65226e-07
4.94093e-06
-2.07351e-05
2.82265e-07
4.93561e-06
-1.99907e-05
2.87387e-07
4.75792e-06
-1.89956e-05
2.80956e-07
4.49749e-06
-1.78026e-05
2.66386e-07
4.23407e-06
-1.64843e-05
2.50022e-07
3.98375e-06
-1.50679e-05
2.3205e-07
3.75091e-06
-1.35902e-05
2.15954e-07
3.53805e-06
-1.20922e-05
2.01384e-07
3.35673e-06
-1.05988e-05
1.84681e-07
3.26093e-06
-9.11531e-06
1.80545e-07
3.30062e-06
-7.58077e-06
1.96166e-07
3.47606e-06
-5.9264e-06
2.29846e-07
3.74772e-06
-4.08254e-06
2.7544e-07
4.04742e-06
-2.00495e-06
3.20383e-07
4.29111e-06
1.951e-07
3.43985e-07
4.40972e-06
1.90069e-06
3.25416e-07
4.37042e-06
3.72209e-06
2.67505e-07
4.1785e-06
5.33895e-06
1.98353e-07
3.87804e-06
6.76339e-06
1.22193e-07
3.50433e-06
8.12474e-06
6.23744e-08
3.07501e-06
9.62072e-06
2.21439e-08
2.587e-06
1.14527e-05
5.43742e-10
2.02595e-06
1.36527e-05
-3.6824e-09
1.40388e-06
1.57417e-05
7.21262e-09
7.71725e-07
1.67521e-05
2.39738e-08
2.18462e-07
1.61509e-05
2.55146e-08
9.86136e-06
1.18025e-08
4.09141e-07
-6.07283e-06
2.08451e-08
1.17399e-06
-1.44031e-05
7.85713e-08
1.95852e-06
-1.89746e-05
1.17903e-07
2.64564e-06
-2.10366e-05
1.3717e-07
3.22269e-06
-2.18604e-05
1.59045e-07
3.68851e-06
-2.21154e-05
1.83839e-07
4.03333e-06
-2.20284e-05
2.11724e-07
4.2282e-06
-2.16625e-05
2.35506e-07
4.2734e-06
-2.10303e-05
2.50053e-07
4.17557e-06
-2.01456e-05
2.52788e-07
3.96408e-06
-1.90261e-05
2.42029e-07
3.71248e-06
-1.77725e-05
2.21531e-07
3.44687e-06
-1.64112e-05
1.92611e-07
3.18672e-06
-1.49708e-05
1.63159e-07
2.955e-06
-1.34972e-05
1.38787e-07
2.76526e-06
-1.20247e-05
1.22331e-07
2.61523e-06
-1.05649e-05
1.16231e-07
2.51241e-06
-9.1238e-06
1.11391e-07
2.48516e-06
-7.66834e-06
1.14897e-07
2.55727e-06
-6.13063e-06
1.32238e-07
2.73988e-06
-4.43229e-06
1.67259e-07
3.0261e-06
-2.51021e-06
2.19179e-07
3.37557e-06
-4.28843e-07
2.74628e-07
3.63454e-06
1.34211e-06
2.99777e-07
3.73848e-06
3.32738e-06
2.90921e-07
3.66357e-06
5.16944e-06
2.44561e-07
3.44485e-06
6.79795e-06
1.84319e-07
3.12074e-06
8.3321e-06
1.16899e-07
2.71936e-06
9.96099e-06
6.12649e-08
2.25657e-06
1.18922e-05
2.34214e-08
1.73408e-06
1.41694e-05
5.9911e-09
1.16916e-06
1.62989e-05
7.91373e-09
6.09851e-07
1.7292e-05
1.9565e-08
1.39456e-07
1.66016e-05
1.99079e-08
9.99697e-06
3.84326e-09
3.76006e-07
-6.48588e-06
3.70859e-08
9.89283e-07
-1.51347e-05
1.18427e-07
1.54871e-06
-1.96953e-05
1.61371e-07
2.0071e-06
-2.16617e-05
1.6671e-07
2.37193e-06
-2.23944e-05
1.69159e-07
2.64948e-06
-2.25707e-05
1.77812e-07
2.82468e-06
-2.2396e-05
1.92379e-07
2.87232e-06
-2.19154e-05
2.05182e-07
2.79312e-06
-2.11635e-05
2.12421e-07
2.61163e-06
-2.01744e-05
2.10323e-07
2.38859e-06
-1.90002e-05
1.9713e-07
2.14352e-06
-1.76963e-05
1.68902e-07
1.88339e-06
-1.6284e-05
1.32921e-07
1.6406e-06
-1.48223e-05
9.42727e-08
1.44634e-06
-1.33614e-05
5.8533e-08
1.3201e-06
-1.19294e-05
3.1036e-08
1.27136e-06
-1.05308e-05
1.46235e-08
1.29125e-06
-9.1548e-06
1.11319e-08
1.37205e-06
-7.76866e-06
1.95434e-08
1.52978e-06
-6.32764e-06
3.93101e-08
1.78834e-06
-4.76332e-06
7.24988e-08
2.16297e-06
-3.00692e-06
1.22109e-07
2.6072e-06
-1.05707e-06
1.84018e-07
2.86771e-06
8.51771e-07
2.29843e-07
3.12726e-06
2.8064e-06
2.61431e-07
3.22612e-06
4.81402e-06
2.56561e-07
3.13296e-06
6.67484e-06
2.1628e-07
2.88774e-06
8.41633e-06
1.60989e-07
2.52663e-06
1.02208e-05
1.01243e-07
2.0828e-06
1.22849e-05
5.11043e-08
1.57496e-06
1.46565e-05
2.06624e-08
1.03247e-06
1.68282e-05
1.31947e-08
5.09954e-07
1.77945e-05
1.99505e-08
9.15078e-08
1.70013e-05
1.8739e-08
1.0089e-05
-5.63581e-10
2.50386e-07
-6.80428e-06
6.797e-08
5.56758e-07
-1.5618e-05
1.76886e-07
7.48383e-07
-2.01081e-05
2.21153e-07
8.73191e-07
-2.20015e-05
2.15048e-07
9.67758e-07
-2.26923e-05
2.03273e-07
1.01833e-06
-2.28202e-05
1.98879e-07
1.00866e-06
-2.2587e-05
2.00689e-07
9.39728e-07
-2.20506e-05
2.04223e-07
8.17717e-07
-2.12468e-05
2.05302e-07
6.57211e-07
-2.02146e-05
2.00696e-07
4.7995e-07
-1.90108e-05
1.87809e-07
3.01416e-07
-1.76812e-05
1.63434e-07
1.51504e-07
-1.62628e-05
1.28724e-07
4.21373e-08
-1.48035e-05
9.05685e-08
-2.31786e-08
-1.33488e-05
5.26801e-08
-4.19198e-08
-1.193e-05
1.93005e-08
-6.5597e-09
-1.05601e-05
-6.09387e-09
9.78311e-08
-9.23608e-06
-2.31064e-08
2.71176e-07
-7.91577e-06
-2.62395e-08
5.13147e-07
-6.55268e-06
-1.69377e-08
8.31379e-07
-5.08669e-06
5.1352e-09
1.23747e-06
-3.45472e-06
4.17069e-08
1.70372e-06
-1.61642e-06
9.30861e-08
2.02291e-06
3.80637e-07
1.51936e-07
2.3648e-06
2.26708e-06
1.97418e-07
2.58397e-06
4.37083e-06
2.24011e-07
2.61663e-06
6.42643e-06
2.15737e-07
2.46716e-06
8.39008e-06
1.75707e-07
2.16695e-06
1.0399e-05
1.22064e-07
1.74874e-06
1.26358e-05
6.72957e-08
1.2557e-06
1.51228e-05
2.68271e-08
7.57813e-07
1.73164e-05
9.65849e-09
3.17942e-07
1.82248e-05
9.55869e-09
9.41102e-09
1.73044e-05
5.38028e-09
1.01087e-05
-1.02607e-08
5.95908e-08
-6.96461e-06
1.00707e-07
1.00581e-09
-1.57873e-05
2.27795e-07
-1.53434e-07
-2.02246e-05
2.70922e-07
-3.27657e-07
-2.20923e-05
2.65009e-07
-4.7412e-07
-2.27983e-05
2.52496e-07
-6.09993e-07
-2.29252e-05
2.40876e-07
-7.46737e-07
-2.26858e-05
2.35462e-07
-8.80481e-07
-2.215e-05
2.33088e-07
-9.96866e-07
-2.136e-05
2.29493e-07
-1.07851e-06
-2.03537e-05
2.20726e-07
-1.11979e-06
-1.91748e-05
2.0524e-07
-1.11092e-06
-1.78755e-05
1.85405e-07
-1.04213e-06
-1.64914e-05
1.59776e-07
-9.20432e-07
-1.50527e-05
1.27482e-07
-7.6522e-07
-1.35957e-05
9.16442e-08
-5.96641e-07
-1.21548e-05
5.61108e-08
-4.25521e-07
-1.0756e-05
2.46999e-08
-2.57327e-07
-9.40466e-06
2.92731e-10
-7.85565e-08
-8.08067e-06
-1.39614e-08
1.28288e-07
-6.74406e-06
-1.55755e-08
3.83623e-07
-5.33889e-06
-3.26569e-09
7.06089e-07
-3.80093e-06
2.35779e-08
1.10071e-06
-2.07557e-06
6.43266e-08
1.53572e-06
-1.68388e-07
1.13793e-07
1.92024e-06
1.72387e-06
1.58442e-07
2.19936e-06
3.896e-06
1.95458e-07
2.31126e-06
6.10812e-06
2.0618e-07
2.22227e-06
8.29339e-06
1.85462e-07
1.95886e-06
1.05217e-05
1.40431e-07
1.55747e-06
1.2951e-05
8.60404e-08
1.08128e-06
1.55592e-05
3.95345e-08
6.27965e-07
1.77556e-05
1.39008e-08
2.52506e-07
1.85939e-05
6.16771e-09
6.51433e-09
1.75516e-05
-1.54828e-09
1.01245e-05
-9.27176e-09
-1.26427e-07
-6.95928e-06
1.20985e-07
-3.75487e-07
-1.57879e-05
2.49566e-07
-6.68568e-07
-2.02204e-05
2.8875e-07
-9.60439e-07
-2.20868e-05
2.86258e-07
-1.22255e-06
-2.28189e-05
2.8263e-07
-1.44999e-06
-2.2976e-05
2.78179e-07
-1.63519e-06
-2.27762e-05
2.75625e-07
-1.7698e-06
-2.22914e-05
2.75931e-07
-1.84118e-06
-2.15665e-05
2.7787e-07
-1.83464e-06
-2.06394e-05
2.79092e-07
-1.74148e-06
-1.95451e-05
2.77135e-07
-1.57051e-06
-1.8316e-05
2.69433e-07
-1.33325e-06
-1.69824e-05
2.53632e-07
-1.04274e-06
-1.55718e-05
2.28492e-07
-7.21608e-07
-1.41117e-05
1.94768e-07
-3.99842e-07
-1.26322e-05
1.55579e-07
-1.08324e-07
-1.11634e-05
1.15754e-07
1.35076e-07
-9.72854e-06
8.0369e-08
3.35994e-07
-8.33501e-06
5.33043e-08
5.19351e-07
-6.96469e-06
3.71519e-08
7.18904e-07
-5.57222e-06
3.36344e-08
9.64014e-07
-4.09031e-06
4.40987e-08
1.26313e-06
-2.44386e-06
6.89703e-08
1.58967e-06
-6.0044e-07
1.05278e-07
1.90105e-06
1.2684e-06
1.43842e-07
2.17681e-06
3.4367e-06
1.83285e-07
2.2994e-06
5.78045e-06
2.04833e-07
2.22703e-06
8.16836e-06
1.97174e-07
1.96159e-06
1.06254e-05
1.61569e-07
1.55177e-06
1.32507e-05
1.09863e-07
1.07635e-06
1.59745e-05
5.99132e-08
6.39919e-07
1.81644e-05
2.74578e-08
2.82902e-07
1.8938e-05
1.26175e-08
4.17746e-08
1.77909e-05
1.57214e-09
1.01683e-05
-2.02998e-09
-1.69434e-07
-6.9226e-06
1.32537e-07
-4.39204e-07
-1.57716e-05
2.53352e-07
-7.27289e-07
-2.02222e-05
2.89753e-07
-9.89887e-07
-2.21121e-05
2.87821e-07
-1.2207e-06
-2.28688e-05
2.8069e-07
-1.41066e-06
-2.30644e-05
2.7828e-07
-1.54975e-06
-2.29189e-05
2.81648e-07
-1.62772e-06
-2.2503e-05
2.89522e-07
-1.63524e-06
-2.18606e-05
3.01543e-07
-1.56518e-06
-2.10252e-05
3.1562e-07
-1.41446e-06
-2.00246e-05
3.28613e-07
-1.1869e-06
-1.88806e-05
3.3698e-07
-8.92354e-07
-1.76144e-05
3.37343e-07
-5.44579e-07
-1.62471e-05
3.27336e-07
-1.61906e-07
-1.48005e-05
3.05903e-07
2.30264e-07
-1.32983e-05
2.73766e-07
6.0057e-07
-1.17676e-05
2.33727e-07
9.18031e-07
-1.02367e-05
1.9053e-07
1.16327e-06
-8.73033e-06
1.49886e-07
1.33909e-06
-7.25767e-06
1.16953e-07
1.47049e-06
-5.7992e-06
9.53625e-08
1.59455e-06
-4.3021e-06
8.74753e-08
1.74518e-06
-2.68938e-06
9.45734e-08
1.9246e-06
-8.95969e-07
1.15761e-07
2.03495e-06
1.01327e-06
1.44397e-07
2.24217e-06
3.04989e-06
1.79188e-07
2.35449e-06
5.4603e-06
2.07434e-07
2.28885e-06
8.02185e-06
2.11778e-07
2.03256e-06
1.06948e-05
1.8651e-07
1.62901e-06
1.35146e-05
1.39365e-07
1.16078e-06
1.63546e-05
8.79212e-08
7.28345e-07
1.85465e-05
5.01551e-08
3.64027e-07
1.92733e-05
2.87614e-08
9.5988e-08
1.80454e-05
1.30693e-08
1.02533e-05
1.09277e-08
-1.99564e-07
-6.85893e-06
1.3563e-07
-5.17156e-07
-1.56917e-05
2.37598e-07
-8.05183e-07
-2.01988e-05
2.64511e-07
-1.03725e-06
-2.21426e-05
2.62512e-07
-1.21977e-06
-2.29436e-05
2.57192e-07
-1.34621e-06
-2.31915e-05
2.53481e-07
-1.41387e-06
-2.31069e-05
2.55628e-07
-1.4204e-06
-2.27608e-05
2.64218e-07
-1.36376e-06
-2.21957e-05
2.78343e-07
-1.24438e-06
-2.1442e-05
2.97366e-07
-1.0641e-06
-2.05244e-05
3.19486e-07
-8.25506e-07
-1.94611e-05
3.41791e-07
-5.33527e-07
-1.82674e-05
3.60871e-07
-1.95843e-07
-1.6958e-05
3.73098e-07
1.76841e-07
-1.55485e-05
3.75175e-07
5.69134e-07
-1.40557e-05
3.64932e-07
9.59082e-07
-1.24996e-05
3.41982e-07
1.3184e-06
-1.09044e-05
3.08239e-07
1.61794e-06
-9.29806e-06
2.68019e-07
1.83878e-06
-7.70597e-06
2.2727e-07
1.98271e-06
-6.13513e-06
1.91787e-07
2.07451e-06
-4.56021e-06
1.66068e-07
2.1551e-06
-2.92315e-06
1.529e-07
2.25381e-06
-1.14845e-06
1.5345e-07
2.28617e-06
8.14359e-07
1.66197e-07
2.42117e-06
2.72818e-06
1.86356e-07
2.51377e-06
5.15478e-06
2.1256e-07
2.46451e-06
7.84554e-06
2.25233e-07
2.23189e-06
1.07165e-05
2.10582e-07
1.84164e-06
1.37348e-05
1.69794e-07
1.36993e-06
1.6707e-05
1.18999e-07
9.10472e-07
1.89274e-05
7.83716e-08
4.98998e-07
1.96316e-05
5.3e-08
1.64667e-07
1.8346e-05
3.342e-08
1.03905e-05
2.74876e-08
-1.57666e-07
-6.82487e-06
1.23322e-07
-4.34075e-07
-1.56083e-05
1.92788e-07
-6.92271e-07
-2.01478e-05
2.07037e-07
-8.92234e-07
-2.21585e-05
2.15686e-07
-1.02633e-06
-2.30201e-05
2.10496e-07
-1.10171e-06
-2.33206e-05
2.04405e-07
-1.12125e-06
-2.32893e-05
2.01797e-07
-1.08609e-06
-2.3001e-05
2.04896e-07
-9.98669e-07
-2.24983e-05
2.15091e-07
-8.62131e-07
-2.18111e-05
2.32386e-07
-6.8005e-07
-2.09628e-05
2.5618e-07
-4.55707e-07
-1.99712e-05
2.85561e-07
-1.92005e-07
-1.88491e-05
3.17876e-07
1.08472e-07
-1.7608e-05
3.49361e-07
4.42909e-07
-1.62584e-05
3.75387e-07
8.05865e-07
-1.48109e-05
3.92103e-07
1.18653e-06
-1.32768e-05
3.9637e-07
1.56605e-06
-1.16707e-05
3.86546e-07
1.91675e-06
-1.00123e-05
3.63306e-07
2.20748e-06
-8.32697e-06
3.30078e-07
2.41704e-06
-6.63736e-06
2.92459e-07
2.54542e-06
-4.94538e-06
2.56549e-07
2.61376e-06
-3.2191e-06
2.27331e-07
2.65375e-06
-1.39664e-06
2.07883e-07
2.68462e-06
5.84219e-07
1.98932e-07
2.7484e-06
2.46207e-06
2.01981e-07
2.78544e-06
4.89917e-06
2.18213e-07
2.71352e-06
7.68337e-06
2.33749e-07
2.47387e-06
1.07258e-05
2.30024e-07
2.06999e-06
1.39396e-05
1.98767e-07
1.56765e-06
1.70583e-05
1.50846e-07
1.06021e-06
1.93265e-05
1.08179e-07
5.92116e-07
2.00197e-05
7.97645e-08
2.01824e-07
1.86795e-05
5.63468e-08
1.05495e-05
4.27606e-08
-1.13074e-07
-6.82315e-06
1.11096e-07
-2.94403e-07
-1.55989e-05
1.71743e-07
-4.41424e-07
-2.01784e-05
1.77537e-07
-5.24564e-07
-2.22434e-05
1.6797e-07
-5.71863e-07
-2.31314e-05
1.58487e-07
-5.82369e-07
-2.34613e-05
1.51119e-07
-5.57775e-07
-2.34594e-05
1.45485e-07
-4.97307e-07
-2.32052e-05
1.43697e-07
-4.02482e-07
-2.27411e-05
1.47896e-07
-2.75787e-07
-2.20974e-05
1.59565e-07
-1.19891e-07
-2.12982e-05
1.79402e-07
6.42427e-08
-2.03621e-05
2.06689e-07
2.76208e-07
-1.93017e-05
2.40521e-07
5.16164e-07
-1.81268e-05
2.78784e-07
7.83877e-07
-1.68454e-05
3.1911e-07
1.07939e-06
-1.54637e-05
3.57131e-07
1.40113e-06
-1.39871e-05
3.88362e-07
1.74261e-06
-1.2421e-05
4.0865e-07
2.08878e-06
-1.07733e-05
4.1475e-07
2.41355e-06
-9.0577e-06
4.05791e-07
2.68595e-06
-7.29347e-06
3.83537e-07
2.88325e-06
-5.49517e-06
3.52297e-07
3.00374e-06
-3.65733e-06
3.17507e-07
3.06664e-06
-1.74365e-06
2.83861e-07
3.08515e-06
3.11549e-07
2.53879e-07
3.09486e-06
2.21576e-06
2.36317e-07
3.06262e-06
4.69922e-06
2.31876e-07
2.93095e-06
7.57725e-06
2.37508e-07
2.64234e-06
1.07769e-05
2.37233e-07
2.18866e-06
1.41778e-05
2.15192e-07
1.63631e-06
1.74367e-05
1.73698e-07
1.09068e-06
1.97397e-05
1.32294e-07
5.96728e-07
2.04108e-05
1.02656e-07
1.99137e-07
1.90004e-05
7.64577e-08
1.06946e-05
5.40233e-08
-7.97288e-08
-6.83708e-06
9.33839e-08
-1.24926e-07
-1.56717e-05
1.17773e-07
-1.04432e-07
-2.03099e-05
1.1087e-07
-5.09649e-08
-2.24037e-05
1.06722e-07
5.36788e-09
-2.32941e-05
1.06376e-07
7.2873e-08
-2.36321e-05
1.03256e-07
1.53221e-07
-2.36394e-05
9.95074e-08
2.50722e-07
-2.3399e-05
9.62737e-08
3.64486e-07
-2.29515e-05
9.65241e-08
4.9334e-07
-2.23285e-05
1.02196e-07
6.35161e-07
-2.15547e-05
1.14652e-07
7.88612e-07
-2.06502e-05
1.34625e-07
9.53096e-07
-1.96287e-05
1.62467e-07
1.1295e-06
-1.85009e-05
1.97566e-07
1.32036e-06
-1.72745e-05
2.38201e-07
1.52891e-06
-1.59545e-05
2.82218e-07
1.75848e-06
-1.45432e-05
3.2644e-07
2.01068e-06
-1.30403e-05
3.67093e-07
2.28201e-06
-1.14448e-05
4.00073e-07
2.5601e-06
-9.75686e-06
4.20965e-07
2.82097e-06
-7.98137e-06
4.26904e-07
3.03339e-06
-6.12509e-06
4.17351e-07
3.16854e-06
-4.18718e-06
3.94537e-07
3.21492e-06
-2.15231e-06
3.62097e-07
3.20889e-06
-5.18389e-09
3.22578e-07
3.16095e-06
1.97216e-06
2.91335e-07
3.05652e-06
4.53766e-06
2.65789e-07
2.85594e-06
7.52474e-06
2.52893e-07
2.51158e-06
1.08766e-05
2.4449e-07
2.01875e-06
1.44456e-05
2.2488e-07
1.45311e-06
1.78137e-05
1.88567e-07
9.27881e-07
2.01155e-05
1.49305e-07
4.74805e-07
2.07454e-05
1.18333e-07
1.37834e-07
1.92482e-05
8.88943e-08
1.07734e-05
5.91168e-08
-2.23045e-08
-6.87854e-06
6.35608e-08
1.22861e-08
-1.57615e-05
5.51012e-08
9.12538e-08
-2.04323e-05
4.33257e-08
1.90414e-07
-2.2555e-05
5.20605e-08
3.04102e-07
-2.34658e-05
5.795e-08
4.28939e-07
-2.38168e-05
5.97419e-08
5.63769e-07
-2.38342e-05
5.99626e-08
7.0957e-07
-2.36046e-05
5.97241e-08
8.62133e-07
-2.31644e-05
6.03289e-08
1.0179e-06
-2.25478e-05
6.34578e-08
1.17264e-06
-2.17801e-05
7.06272e-08
1.32312e-06
-2.08838e-05
8.30437e-08
1.46743e-06
-1.9875e-05
1.01898e-07
1.60571e-06
-1.87671e-05
1.27945e-07
1.74e-06
-1.75702e-05
1.61352e-07
1.87419e-06
-1.62902e-05
2.01444e-07
2.01388e-06
-1.49295e-05
2.46556e-07
2.16544e-06
-1.34859e-05
2.93948e-07
2.33407e-06
-1.19537e-05
3.40145e-07
2.51957e-06
-1.03236e-05
3.81115e-07
2.71157e-06
-8.58589e-06
4.12444e-07
2.88776e-06
-6.73172e-06
4.30347e-07
3.01514e-06
-4.74691e-06
4.3224e-07
3.06291e-06
-2.61767e-06
4.17453e-07
3.05495e-06
-3.84903e-07
3.87535e-07
2.99199e-06
1.68108e-06
3.53882e-07
2.85996e-06
4.35486e-06
3.1467e-07
2.64274e-06
7.45739e-06
2.84413e-07
2.30525e-06
1.09495e-05
2.64492e-07
1.85181e-06
1.46583e-05
2.407e-07
1.34248e-06
1.81179e-05
2.0499e-07
8.65731e-07
2.04251e-05
1.67092e-07
4.47971e-07
2.10284e-05
1.34694e-07
1.27498e-07
1.94683e-05