/*--------------------------------*- C++ -*----------------------------------*\
| =========                 |                                                 |
| \\      /  F ield         | OpenFOAM: The Open Source CFD Toolbox           |
|  \\    /   O peration     | Version:  2.3.x                                 |
|   \\  /    A nd           | Web:      www.OpenFOAM.org                      |
|    \\/     M anipulation  |                                                 |
\*---------------------------------------------------------------------------*/
FoamFile
{
    version     2.0;
    format      ascii;
    class       surfaceScalarField;
    location    "950";
    object      phi;
}
// * * * * * * * * * * * * * * * * * * * * * * * * * * * * * * * * * * * * * //

dimensions      [1 0 -1 0 0 0 0];

internalField   nonuniform List<scalar> 
228225
(
-4.30419e-06
2.67797e-06
1.59076e-06
-1.03617e-05
3.2587e-06
2.79881e-06
-1.56892e-05
2.30075e-06
3.02666e-06
-1.96398e-05
9.65519e-07
2.98508e-06
-2.13039e-05
-1.22298e-06
2.88707e-06
-2.12102e-05
-2.84748e-06
2.75372e-06
-1.91158e-05
-4.72436e-06
2.62995e-06
-1.52027e-05
-6.44232e-06
2.52922e-06
-1.01908e-05
-7.47265e-06
2.46073e-06
-4.55437e-06
-8.06039e-06
2.42399e-06
1.3794e-06
-8.32616e-06
2.3924e-06
7.37678e-06
-8.37387e-06
2.37651e-06
1.32914e-05
-8.28854e-06
2.374e-06
1.90095e-05
-8.13294e-06
2.41479e-06
2.44459e-05
-7.87493e-06
2.4386e-06
2.95988e-05
-7.58509e-06
2.43224e-06
3.4385e-05
-7.19897e-06
2.41274e-06
3.8646e-05
-6.66469e-06
2.40378e-06
4.23321e-05
-6.09022e-06
2.4041e-06
4.54109e-05
-5.47972e-06
2.40096e-06
4.79168e-05
-4.92353e-06
2.41762e-06
4.96425e-05
-4.16734e-06
2.44171e-06
5.07777e-05
-3.59174e-06
2.45656e-06
5.1206e-05
-2.91131e-06
2.48307e-06
5.09369e-05
-2.24127e-06
2.51043e-06
4.99281e-05
-1.53464e-06
2.54349e-06
4.81733e-05
-8.28351e-07
2.58319e-06
4.539e-05
1.52322e-07
2.63113e-06
4.17949e-05
9.09365e-07
2.6858e-06
3.74019e-05
1.64142e-06
2.75165e-06
3.1883e-05
2.69507e-06
2.82404e-06
2.51724e-05
3.77929e-06
2.93142e-06
1.71674e-05
4.95055e-06
3.0546e-06
7.97556e-06
6.13522e-06
3.0569e-06
6.02672e-06
1.94884e-06
1.14064e-06
6.05275e-07
9.31923e-07
1.80457e-06
7.1283e-07
1.88181e-06
2.40417e-06
-5.19594e-07
2.22062e-06
3.92833e-06
-2.81044e-06
2.25168e-06
6.39201e-06
-5.84708e-06
2.16032e-06
9.632e-06
-8.14256e-06
2.05501e-06
1.33162e-05
-1.02009e-05
1.79233e-06
1.67938e-05
-1.15432e-05
1.62318e-06
2.00836e-05
-1.22401e-05
1.47768e-06
2.32316e-05
-1.25845e-05
1.37615e-06
2.62134e-05
-1.26125e-05
1.3046e-06
2.89977e-05
-1.23977e-05
1.23961e-06
3.15502e-05
-1.20518e-05
1.21087e-06
3.38792e-05
-1.16469e-05
1.18494e-06
3.59728e-05
-1.11126e-05
1.14425e-06
3.76751e-05
-1.04026e-05
1.11522e-06
3.89665e-05
-9.59359e-06
1.1034e-06
3.99622e-05
-8.76777e-06
1.10754e-06
4.06681e-05
-7.91332e-06
1.11734e-06
4.10795e-05
-7.02684e-06
1.13586e-06
4.11694e-05
-6.15362e-06
1.14037e-06
4.1095e-05
-5.24723e-06
1.15442e-06
4.06276e-05
-4.3025e-06
1.17833e-06
3.9827e-05
-3.32543e-06
1.21485e-06
3.86412e-05
-2.32796e-06
1.27261e-06
3.70851e-05
-1.29847e-06
1.32015e-06
3.48976e-05
-3.47818e-08
1.39408e-06
3.23652e-05
1.17067e-06
1.5141e-06
2.93365e-05
2.29124e-06
1.6469e-06
2.5686e-05
3.48313e-06
1.80891e-06
2.14736e-05
4.90296e-06
2.00469e-06
1.6417e-05
6.61196e-06
2.22409e-06
1.03548e-05
8.61116e-06
2.40177e-06
4.06898e-06
1.00492e-05
2.37206e-06
8.65996e-06
1.43575e-06
5.71041e-07
-6.47699e-07
6.81852e-07
3.11504e-06
-3.10415e-06
1.27288e-06
7.36291e-06
-6.22892e-06
1.46137e-06
1.24782e-05
-9.35371e-06
1.42797e-06
1.71539e-05
-1.17958e-05
1.27301e-06
2.13406e-05
-1.34414e-05
1.11215e-06
2.43675e-05
-1.42826e-05
1.05481e-06
2.6371e-05
-1.45067e-05
9.59949e-07
2.77337e-05
-1.45202e-05
9.17334e-07
2.86597e-05
-1.441e-05
8.99506e-07
2.92803e-05
-1.41107e-05
8.77544e-07
2.97186e-05
-1.36889e-05
8.52755e-07
3.00006e-05
-1.31608e-05
8.26935e-07
3.01203e-05
-1.25457e-05
7.79137e-07
3.01e-05
-1.18351e-05
7.42761e-07
3.00004e-05
-1.10202e-05
7.17211e-07
2.98666e-05
-1.01573e-05
6.97521e-07
2.97131e-05
-9.28512e-06
6.70882e-07
2.95031e-05
-8.35197e-06
6.48574e-07
2.91975e-05
-7.35371e-06
6.32538e-07
2.8716e-05
-6.298e-06
6.25861e-07
2.804e-05
-5.2011e-06
6.29849e-07
2.71705e-05
-4.0808e-06
6.47841e-07
2.61062e-05
-2.94367e-06
6.82572e-07
2.48218e-05
-1.75853e-06
7.15105e-07
2.32086e-05
-4.52817e-07
7.67593e-07
2.15067e-05
8.08164e-07
8.59046e-07
1.98092e-05
1.91129e-06
9.56969e-07
1.78416e-05
3.18449e-06
1.07447e-06
1.54795e-05
4.62603e-06
1.21931e-06
1.27325e-05
6.23563e-06
1.41447e-06
9.38789e-06
8.31572e-06
1.64102e-06
5.47262e-06
1.05968e-05
1.92979e-06
1.91157e-06
1.1719e-05
1.89145e-06
9.49227e-06
1.07925e-06
5.82512e-07
-1.691e-06
4.60523e-07
2.86574e-06
-6.13801e-06
7.50391e-07
6.04415e-06
-1.01227e-05
7.152e-07
8.98226e-06
-1.29067e-05
6.14699e-07
1.11676e-05
-1.45046e-05
5.23284e-07
1.25656e-05
-1.52836e-05
4.44109e-07
1.34894e-05
-1.562e-05
4.13438e-07
1.42769e-05
-1.57236e-05
4.29338e-07
1.50244e-05
-1.56501e-05
3.82277e-07
1.5685e-05
-1.54058e-05
3.35158e-07
1.62873e-05
-1.50087e-05
2.95683e-07
1.68171e-05
-1.4482e-05
2.63333e-07
1.72551e-05
-1.38361e-05
2.37154e-07
1.75826e-05
-1.30908e-05
2.17518e-07
1.78205e-05
-1.22766e-05
2.03581e-07
1.80176e-05
-1.1401e-05
1.83715e-07
1.81345e-05
-1.044e-05
1.65782e-07
1.80926e-05
-9.39544e-06
1.52175e-07
1.78785e-05
-8.2806e-06
1.42713e-07
1.74998e-05
-7.11283e-06
1.3776e-07
1.69788e-05
-5.91441e-06
1.37437e-07
1.63468e-05
-4.71226e-06
1.4314e-07
1.56361e-05
-3.52781e-06
1.57686e-07
1.48797e-05
-2.36219e-06
1.7488e-07
1.40512e-05
-1.14306e-06
2.12906e-07
1.30964e-05
2.21909e-07
2.80079e-07
1.23901e-05
1.15057e-06
3.63884e-07
1.14508e-05
2.36949e-06
4.81039e-07
1.0335e-05
3.66499e-06
6.35267e-07
9.02622e-06
5.11348e-06
8.21344e-07
7.30606e-06
6.90262e-06
1.05319e-06
5.07857e-06
9.23273e-06
1.31052e-06
2.61679e-06
1.15335e-05
1.52505e-06
5.31788e-07
1.23606e-05
1.44343e-06
9.34607e-06
6.77988e-07
1.00711e-06
-2.97025e-06
2.71946e-07
2.9912e-06
-8.55063e-06
4.2836e-07
4.89996e-06
-1.24964e-05
4.64806e-07
6.29442e-06
-1.47832e-05
4.82015e-07
7.26894e-06
-1.59505e-05
4.7129e-07
8.05999e-06
-1.65231e-05
4.48451e-07
8.78975e-06
-1.67571e-05
4.07328e-07
9.45358e-06
-1.67437e-05
3.56198e-07
1.0013e-05
-1.65272e-05
3.17643e-07
1.04653e-05
-1.61355e-05
2.77293e-07
1.08356e-05
-1.5617e-05
2.37809e-07
1.11198e-05
-1.49685e-05
2.02086e-07
1.13035e-05
-1.41904e-05
1.70629e-07
1.13679e-05
-1.32973e-05
1.41943e-07
1.13045e-05
-1.23287e-05
1.15333e-07
1.11332e-05
-1.1328e-05
9.80412e-08
1.08737e-05
-1.02617e-05
8.10866e-08
1.05402e-05
-9.12626e-06
6.40978e-08
1.01435e-05
-7.92951e-06
4.53745e-08
9.69576e-06
-6.68951e-06
2.42387e-08
9.21065e-06
-5.43128e-06
1.77037e-09
8.70037e-06
-4.18299e-06
-1.92131e-08
8.17191e-06
-2.96559e-06
-3.39882e-08
7.63552e-06
-1.78151e-06
-4.45227e-08
7.16246e-06
-6.33592e-07
-3.65997e-08
6.99705e-06
3.93361e-07
-6.20265e-09
6.77977e-06
1.31875e-06
4.89525e-08
6.58372e-06
2.43038e-06
1.35025e-07
6.26525e-06
3.71234e-06
2.70999e-07
5.67895e-06
5.2466e-06
4.5311e-07
4.65715e-06
7.22844e-06
6.95948e-07
3.19204e-06
9.72279e-06
9.75046e-07
1.58292e-06
1.19684e-05
1.17432e-06
2.44859e-07
1.2589e-05
1.10963e-06
9.07806e-06
5.12859e-07
6.32457e-07
-3.81425e-06
2.1118e-07
1.54283e-06
-9.79621e-06
3.3493e-07
2.25673e-06
-1.35589e-05
3.48345e-07
2.75212e-06
-1.56004e-05
3.21582e-07
3.12365e-06
-1.66048e-05
2.82624e-07
3.41722e-06
-1.7067e-05
2.5013e-07
3.66125e-06
-1.7219e-05
2.17731e-07
3.8806e-06
-1.71557e-05
1.92552e-07
4.09985e-06
-1.69118e-05
1.65257e-07
4.33739e-06
-1.65167e-05
1.43576e-07
4.57739e-06
-1.59815e-05
1.24384e-07
4.82249e-06
-1.53194e-05
1.05656e-07
5.08074e-06
-1.45368e-05
8.79925e-08
5.34531e-06
-1.36346e-05
7.26125e-08
5.57685e-06
-1.26193e-05
5.88359e-08
5.72306e-06
-1.1518e-05
4.35593e-08
5.7846e-06
-1.03496e-05
2.61066e-08
5.77473e-06
-9.12288e-06
6.2205e-09
5.71007e-06
-7.84965e-06
-1.54905e-08
5.60512e-06
-6.54728e-06
-3.76078e-08
5.46984e-06
-5.23745e-06
-5.88881e-08
5.3104e-06
-3.94374e-06
-8.01826e-08
5.13623e-06
-2.68911e-06
-1.02695e-07
4.96279e-06
-1.48419e-06
-1.24257e-07
4.83421e-06
-3.75521e-07
-1.2982e-07
4.85819e-06
4.74662e-07
-1.05615e-07
4.81744e-06
1.41722e-06
-5.80712e-08
4.7558e-06
2.47303e-06
1.863e-08
4.61447e-06
3.719e-06
1.34324e-07
4.261e-06
5.3e-06
2.99722e-07
3.53179e-06
7.44164e-06
5.15688e-07
2.38465e-06
1.00918e-05
7.7784e-07
1.13242e-06
1.22722e-05
9.48051e-07
1.09132e-07
1.27287e-05
8.83198e-07
8.79511e-06
3.92072e-07
2.14299e-07
-4.18455e-06
1.55609e-07
4.66041e-07
-1.02956e-05
2.47356e-07
6.31751e-07
-1.39983e-05
2.73436e-07
7.18095e-07
-1.59724e-05
2.85442e-07
7.75459e-07
-1.69403e-05
2.77896e-07
8.35604e-07
-1.73931e-05
2.65863e-07
9.1704e-07
-1.75462e-05
2.45588e-07
1.01987e-06
-1.74805e-05
2.21861e-07
1.14186e-06
-1.72318e-05
1.97931e-07
1.27106e-06
-1.68219e-05
1.75809e-07
1.4001e-06
-1.62666e-05
1.5592e-07
1.53161e-06
-1.559e-05
1.38888e-07
1.67535e-06
-1.48061e-05
1.25287e-07
1.8415e-06
-1.39154e-05
1.14412e-07
2.03842e-06
-1.29221e-05
1.05699e-07
2.25729e-06
-1.18343e-05
9.72531e-08
2.48583e-06
-1.06647e-05
8.62212e-08
2.71864e-06
-9.42589e-06
6.99335e-08
2.95397e-06
-8.13308e-06
4.78159e-08
3.18996e-06
-6.80326e-06
1.97066e-08
3.41982e-06
-5.45475e-06
-1.2859e-08
3.63027e-06
-4.11016e-06
-4.43275e-08
3.80836e-06
-2.79347e-06
-7.40211e-08
3.94772e-06
-1.52554e-06
-9.82645e-08
4.04233e-06
-3.57298e-07
-1.13056e-07
4.09872e-06
5.25586e-07
-1.07517e-07
4.11348e-06
1.4903e-06
-8.80412e-08
4.08464e-06
2.54741e-06
-4.57255e-08
3.97311e-06
3.80174e-06
2.86018e-08
3.67815e-06
5.44607e-06
1.48706e-07
3.08794e-06
7.69866e-06
3.33018e-07
2.17277e-06
1.04448e-05
5.62088e-07
1.13514e-06
1.25717e-05
7.37984e-07
2.43052e-07
1.29174e-05
7.0311e-07
8.74148e-06
2.9668e-07
6.27384e-08
-4.36594e-06
1.18231e-07
1.37584e-07
-1.05351e-05
1.64322e-07
2.22543e-07
-1.42394e-05
1.55922e-07
2.98987e-07
-1.62079e-05
1.58932e-07
3.49224e-07
-1.71683e-05
1.77614e-07
3.90968e-07
-1.76141e-05
1.79122e-07
4.36551e-07
-1.77632e-05
1.71348e-07
4.96057e-07
-1.76988e-05
1.58668e-07
5.77658e-07
-1.74583e-05
1.44715e-07
6.89695e-07
-1.70662e-05
1.32122e-07
8.40146e-07
-1.65393e-05
1.2206e-07
1.0248e-06
-1.58891e-05
1.14368e-07
1.23543e-06
-1.51266e-05
1.09789e-07
1.47403e-06
-1.4264e-05
1.0979e-07
1.74634e-06
-1.331e-05
1.15384e-07
2.0555e-06
-1.227e-05
1.26366e-07
2.39752e-06
-1.11478e-05
1.40909e-07
2.76472e-06
-9.94709e-06
1.53793e-07
3.14521e-06
-8.6749e-06
1.6113e-07
3.52575e-06
-7.34242e-06
1.58398e-07
3.89279e-06
-5.96395e-06
1.41928e-07
4.22854e-06
-4.55623e-06
1.10071e-07
4.50434e-06
-3.13346e-06
6.39483e-08
4.67621e-06
-1.70875e-06
1.10976e-08
4.72018e-06
-3.63421e-07
-3.80569e-08
4.60163e-06
7.00867e-07
-5.69486e-08
4.49057e-06
1.66332e-06
-6.21987e-08
4.31087e-06
2.77235e-06
-4.54856e-08
4.0562e-06
4.0554e-06
7.2924e-10
3.66552e-06
5.74647e-06
8.99717e-08
3.0546e-06
8.07366e-06
2.35657e-07
2.19413e-06
1.08796e-05
4.2546e-07
1.21776e-06
1.29672e-05
5.80625e-07
3.43033e-07
1.3227e-05
5.64961e-07
8.83398e-06
2.50525e-07
-4.31057e-08
-4.40391e-06
8.07996e-08
-2.11145e-08
-1.06426e-05
8.53586e-08
7.27592e-08
-1.43971e-05
6.36816e-08
2.01346e-07
-1.64045e-05
6.78505e-08
3.38408e-07
-1.73981e-05
9.27284e-08
4.86066e-07
-1.78764e-05
1.14532e-07
6.56305e-07
-1.80602e-05
1.26677e-07
8.60882e-07
-1.8032e-05
1.28562e-07
1.10602e-06
-1.78271e-05
1.23662e-07
1.39117e-06
-1.74667e-05
1.15294e-07
1.71122e-06
-1.69654e-05
1.06016e-07
2.06105e-06
-1.6336e-05
9.70062e-08
2.43407e-06
-1.55893e-05
8.95821e-08
2.8197e-06
-1.47352e-05
8.55984e-08
3.20371e-06
-1.37812e-05
8.71396e-08
3.57457e-06
-1.2737e-05
9.60305e-08
3.9264e-06
-1.16128e-05
1.13146e-07
4.25661e-06
-1.04164e-05
1.39113e-07
4.56546e-06
-9.15333e-06
1.69552e-07
4.85258e-06
-7.82961e-06
2.00046e-07
5.11629e-06
-6.45182e-06
2.24136e-07
5.351e-06
-5.02545e-06
2.34483e-07
5.54129e-06
-3.54878e-06
2.24999e-07
5.66255e-06
-2.02276e-06
1.92719e-07
5.68018e-06
-5.2237e-07
1.41281e-07
5.47055e-06
8.21115e-07
8.933e-08
5.25226e-06
1.81916e-06
6.23734e-08
4.92717e-06
3.05455e-06
4.27762e-08
4.49101e-06
4.44244e-06
4.89974e-08
3.95153e-06
6.19213e-06
9.36856e-08
3.26071e-06
8.57188e-06
1.92481e-07
2.3813e-06
1.14215e-05
3.37436e-07
1.39068e-06
1.3492e-05
4.65781e-07
4.66067e-07
1.3686e-05
4.6547e-07
9.08369e-06
2.16363e-07
1.20831e-07
-4.5689e-06
4.38934e-08
4.0889e-07
-1.09503e-05
1.94525e-08
7.82204e-07
-1.47567e-05
-1.3763e-08
1.1669e-06
-1.67737e-05
-1.55374e-08
1.52866e-06
-1.77696e-05
9.64988e-09
1.86572e-06
-1.82504e-05
3.69683e-08
2.18281e-06
-1.84363e-05
5.89781e-08
2.4875e-06
-1.8408e-05
7.12676e-08
2.78478e-06
-1.81999e-05
7.54167e-08
3.07794e-06
-1.78338e-05
7.39552e-08
3.368e-06
-1.73245e-05
6.91142e-08
3.65531e-06
-1.66855e-05
6.22372e-08
3.94379e-06
-1.59316e-05
5.38549e-08
4.24045e-06
-1.50773e-05
4.54206e-08
4.5323e-06
-1.41125e-05
3.95611e-08
4.81305e-06
-1.30559e-05
3.82671e-08
5.08061e-06
-1.19236e-05
4.33046e-08
5.33128e-06
-1.07245e-05
5.74666e-08
5.56212e-06
-9.46469e-06
8.06336e-08
5.76764e-06
-8.14726e-06
1.12241e-07
5.93957e-06
-6.77268e-06
1.49046e-07
6.06772e-06
-5.33948e-06
1.86016e-07
6.14527e-06
-3.84235e-06
2.1615e-07
6.14878e-06
-2.25666e-06
2.30524e-07
6.02661e-06
-6.21338e-07
2.21234e-07
5.87905e-06
7.80475e-07
1.88253e-07
5.61217e-06
1.92403e-06
1.62021e-07
5.21553e-06
3.32133e-06
1.2985e-07
4.68161e-06
4.86571e-06
1.10593e-07
4.01735e-06
6.73421e-06
1.22117e-07
3.22102e-06
9.18562e-06
1.82516e-07
2.29442e-06
1.20587e-05
2.89332e-07
1.30712e-06
1.40862e-05
3.93076e-07
4.03448e-07
1.41924e-05
3.97242e-07
9.29794e-06
1.89194e-07
1.28822e-07
-4.71452e-06
1.68141e-08
4.71894e-07
-1.12582e-05
-3.51012e-08
9.13618e-07
-1.51157e-05
-8.27373e-08
1.358e-06
-1.71268e-05
-9.13083e-08
1.76815e-06
-1.81074e-05
-7.22959e-08
2.13674e-06
-1.85781e-05
-4.08693e-08
2.47107e-06
-1.8758e-05
-1.26412e-08
2.78088e-06
-1.87263e-05
8.53823e-09
3.07276e-06
-1.85141e-05
2.24066e-08
3.35161e-06
-1.81429e-05
3.03581e-08
3.61871e-06
-1.76254e-05
3.3852e-08
3.87375e-06
-1.69747e-05
3.42278e-08
4.10708e-06
-1.61965e-05
3.16555e-08
4.29503e-06
-1.52909e-05
2.5798e-08
4.44509e-06
-1.42872e-05
2.47742e-08
4.57168e-06
-1.32092e-05
2.68561e-08
4.68658e-06
-1.20702e-05
3.18577e-08
4.80089e-06
-1.08797e-05
4.10691e-08
4.91923e-06
-9.63836e-06
5.54941e-08
5.04444e-06
-8.34786e-06
7.55651e-08
5.17482e-06
-7.00502e-06
1.02144e-07
5.30224e-06
-5.60177e-06
1.35064e-07
5.41221e-06
-4.12179e-06
1.69681e-07
5.49373e-06
-2.53977e-06
2.01776e-07
5.50991e-06
-8.60114e-07
2.22733e-07
5.4053e-06
6.58531e-07
2.26656e-07
5.18519e-06
1.92584e-06
2.18372e-07
4.83256e-06
3.4831e-06
1.90896e-07
4.34393e-06
5.19463e-06
1.59717e-07
3.71767e-06
7.21464e-06
1.45805e-07
2.95974e-06
9.77128e-06
1.72211e-07
2.08973e-06
1.26838e-05
2.44824e-07
1.1764e-06
1.46736e-05
3.25744e-07
3.4932e-07
1.46886e-05
3.30696e-07
9.48939e-06
1.57868e-07
1.83759e-07
-4.8892e-06
-9.04833e-09
6.27475e-07
-1.16208e-05
-8.1077e-08
1.20051e-06
-1.55525e-05
-1.36189e-07
1.7809e-06
-1.75564e-05
-1.50738e-07
2.31768e-06
-1.85067e-05
-1.3745e-07
2.7992e-06
-1.89481e-05
-1.11448e-07
3.22974e-06
-1.91022e-05
-8.62328e-08
3.61857e-06
-1.90495e-05
-6.55512e-08
3.96886e-06
-1.88134e-05
-5.09173e-08
4.28219e-06
-1.84151e-05
-4.10871e-08
4.55558e-06
-1.78637e-05
-3.49708e-08
4.77683e-06
-1.71641e-05
-3.16858e-08
4.92325e-06
-1.63152e-05
-2.75033e-08
4.99986e-06
-1.53515e-05
-1.57916e-08
5.04077e-06
-1.43225e-05
-5.4114e-09
5.06516e-06
-1.32374e-05
4.03359e-09
5.08263e-06
-1.21025e-05
1.50343e-08
5.10092e-06
-1.09229e-05
2.51069e-08
5.12274e-06
-9.69936e-06
3.94163e-08
5.15209e-06
-8.43379e-06
5.68162e-08
5.1936e-06
-7.12438e-06
7.80693e-08
5.24976e-06
-5.76252e-06
1.04812e-07
5.31339e-06
-4.32339e-06
1.38204e-07
5.38972e-06
-2.7892e-06
1.73325e-07
5.46653e-06
-1.14343e-06
2.06701e-07
5.31892e-06
5.76843e-07
2.29449e-07
5.09808e-06
1.90927e-06
2.37538e-07
4.78269e-06
3.57011e-06
2.28493e-07
4.33555e-06
5.43652e-06
2.05348e-07
3.72773e-06
7.63919e-06
1.83373e-07
2.95785e-06
1.03544e-05
1.86818e-07
2.06462e-06
1.33464e-05
2.30747e-07
1.14823e-06
1.5299e-05
2.91128e-07
3.36106e-07
1.5208e-05
2.92933e-07
9.68514e-06
1.40358e-07
2.1752e-07
-5.07527e-06
-3.1217e-08
7.62899e-07
-1.20483e-05
-1.17744e-07
1.45889e-06
-1.60715e-05
-1.76874e-07
2.15989e-06
-1.80618e-05
-1.95446e-07
2.80857e-06
-1.89682e-05
-1.87044e-07
3.38949e-06
-1.93631e-05
-1.65894e-07
3.90046e-06
-1.9469e-05
-1.44033e-07
4.34657e-06
-1.93709e-05
-1.24607e-07
4.72424e-06
-1.90806e-05
-1.10253e-07
5.03179e-06
-1.86224e-05
-1.00033e-07
5.26587e-06
-1.80049e-05
-9.27345e-08
5.40197e-06
-1.72145e-05
-8.55485e-08
5.46015e-06
-1.6304e-05
-6.91024e-08
5.48406e-06
-1.53185e-05
-5.66798e-08
5.48316e-06
-1.42754e-05
-4.5894e-08
5.46355e-06
-1.31836e-05
-3.3955e-08
5.43094e-06
-1.20485e-05
-2.1017e-08
5.38602e-06
-1.0873e-05
-4.63955e-09
5.33538e-06
-9.66093e-06
1.24988e-08
5.28269e-06
-8.412e-06
3.11722e-08
5.22948e-06
-7.12183e-06
5.09245e-08
5.17887e-06
-5.78334e-06
7.16583e-08
5.14021e-06
-4.3819e-06
9.73827e-08
5.10939e-06
-2.88948e-06
1.31284e-07
5.07051e-06
-1.27387e-06
1.69474e-07
4.99121e-06
4.53392e-07
2.02832e-07
4.82875e-06
1.84974e-06
2.21998e-07
4.54393e-06
3.6294e-06
2.25481e-07
4.09364e-06
5.67621e-06
2.1051e-07
3.44819e-06
8.09874e-06
1.85781e-07
2.62432e-06
1.10045e-05
1.73736e-07
1.72337e-06
1.40521e-05
1.95131e-07
8.92388e-07
1.58933e-05
2.367e-07
2.09143e-07
1.56561e-05
2.35147e-07
9.78626e-06
1.08021e-07
2.63934e-07
-5.28966e-06
-4.92232e-08
8.95407e-07
-1.25394e-05
-1.40143e-07
1.68796e-06
-1.66664e-05
-1.97471e-07
2.4867e-06
-1.8641e-05
-2.19342e-07
3.23439e-06
-1.94993e-05
-2.16499e-07
3.91305e-06
-1.98406e-05
-2.00973e-07
4.51465e-06
-1.9887e-05
-1.83444e-07
5.03927e-06
-1.97284e-05
-1.66861e-07
5.47726e-06
-1.93631e-05
-1.55332e-07
5.81918e-06
-1.88156e-05
-1.48504e-07
6.03435e-06
-1.80738e-05
-1.45982e-07
6.15174e-06
-1.71934e-05
-1.38087e-07
6.20953e-06
-1.62225e-05
-1.38977e-07
6.20792e-06
-1.51792e-05
-1.37313e-07
6.15507e-06
-1.40901e-05
-1.32155e-07
6.06416e-06
-1.29704e-05
-1.21934e-07
5.94528e-06
-1.18235e-05
-1.05845e-07
5.80682e-06
-1.065e-05
-8.42406e-08
5.65679e-06
-9.45254e-06
-5.80204e-08
5.5068e-06
-8.23354e-06
-2.81317e-08
5.36619e-06
-6.98532e-06
4.41381e-09
5.237e-06
-5.69302e-06
3.9178e-08
5.11823e-06
-4.33684e-06
7.40157e-08
5.00278e-06
-2.88294e-06
1.09208e-07
4.87496e-06
-1.29231e-06
1.46532e-07
4.71959e-06
4.25949e-07
1.83033e-07
4.50415e-06
1.85738e-06
2.07958e-07
4.18313e-06
3.726e-06
2.24527e-07
3.72172e-06
5.91569e-06
2.21959e-07
3.10334e-06
8.51539e-06
2.0171e-07
2.35291e-06
1.15741e-05
1.80743e-07
1.55866e-06
1.46637e-05
1.82666e-07
8.28012e-07
1.64194e-05
2.04393e-07
2.19525e-07
1.6071e-05
1.93413e-07
9.92107e-06
8.47117e-08
3.50891e-07
-5.57492e-06
-6.525e-08
1.13113e-06
-1.31663e-05
-1.53047e-07
2.05783e-06
-1.73868e-05
-2.06077e-07
2.96763e-06
-1.93168e-05
-2.33786e-07
3.81503e-06
-2.01069e-05
-2.39541e-07
4.58702e-06
-2.03798e-05
-2.32616e-07
5.27775e-06
-2.03558e-05
-2.21724e-07
5.86687e-06
-2.0107e-05
-2.10247e-07
6.35064e-06
-1.9643e-05
-2.03577e-07
6.68468e-06
-1.89477e-05
-2.01586e-07
6.8901e-06
-1.80788e-05
-1.99964e-07
6.99828e-06
-1.70928e-05
-2.08453e-07
7.00552e-06
-1.6011e-05
-2.18338e-07
6.93172e-06
-1.48787e-05
-2.26306e-07
6.79889e-06
-1.37279e-05
-2.28886e-07
6.62713e-06
-1.25737e-05
-2.24504e-07
6.43054e-06
-1.1414e-05
-2.12464e-07
6.21356e-06
-1.02399e-05
-1.92695e-07
5.98104e-06
-9.05376e-06
-1.6591e-07
5.74519e-06
-7.86376e-06
-1.3361e-07
5.52351e-06
-6.6664e-06
-9.69537e-08
5.32847e-06
-5.44053e-06
-5.71795e-08
5.16048e-06
-4.15378e-06
-1.48119e-08
5.00748e-06
-2.75979e-06
3.00951e-08
4.84595e-06
-1.20848e-06
7.79126e-08
4.66071e-06
4.8537e-07
1.25977e-07
4.42364e-06
1.93433e-06
1.60253e-07
4.10439e-06
3.85534e-06
1.89996e-07
3.67498e-06
6.14171e-06
2.03435e-07
3.11839e-06
8.87488e-06
1.97087e-07
2.43868e-06
1.20735e-05
1.80296e-07
1.67473e-06
1.5253e-05
1.74565e-07
9.18542e-07
1.69893e-05
1.86127e-07
2.61649e-07
1.6556e-05
1.71572e-07
1.01102e-05
7.25152e-08
4.29262e-07
-5.9328e-06
-7.09145e-08
1.28289e-06
-1.38799e-05
-1.39771e-07
2.241e-06
-1.81614e-05
-1.83182e-07
3.16551e-06
-2.00225e-05
-2.18582e-07
4.02759e-06
-2.07321e-05
-2.36665e-07
4.81404e-06
-2.09234e-05
-2.42601e-07
5.51203e-06
-2.08133e-05
-2.40238e-07
6.0794e-06
-2.04358e-05
-2.38325e-07
6.47926e-06
-1.98043e-05
-2.38235e-07
6.7376e-06
-1.89621e-05
-2.43571e-07
6.87699e-06
-1.79619e-05
-2.55903e-07
6.88693e-06
-1.68311e-05
-2.71196e-07
6.79625e-06
-1.56341e-05
-2.85781e-07
6.64132e-06
-1.44266e-05
-2.96784e-07
6.45473e-06
-1.32384e-05
-3.02557e-07
6.25769e-06
-1.20743e-05
-3.01988e-07
6.05963e-06
-1.09213e-05
-2.94309e-07
5.85832e-06
-9.7593e-06
-2.7899e-07
5.64778e-06
-8.58662e-06
-2.56286e-07
5.42878e-06
-7.41727e-06
-2.27214e-07
5.21129e-06
-6.25552e-06
-1.93145e-07
5.00751e-06
-5.08158e-06
-1.54965e-07
4.83031e-06
-3.8635e-06
-1.12899e-07
4.69163e-06
-2.55468e-06
-6.62822e-08
4.58158e-06
-1.08421e-06
-1.41426e-08
4.48369e-06
5.42412e-07
4.08529e-08
4.32491e-06
2.01088e-06
8.21492e-08
4.06912e-06
3.98936e-06
1.21617e-07
3.66108e-06
6.4014e-06
1.48149e-07
3.061e-06
9.31926e-06
1.55499e-07
2.28333e-06
1.27025e-05
1.48494e-07
1.44326e-06
1.59496e-05
1.43359e-07
7.04046e-07
1.75784e-05
1.50018e-07
1.31773e-07
1.69952e-05
1.3295e-07
1.02028e-05
3.91846e-08
4.64167e-07
-6.33136e-06
-6.5273e-08
1.28462e-06
-1.45956e-05
-1.04484e-07
2.13927e-06
-1.88793e-05
-1.36571e-07
2.93716e-06
-2.06406e-05
-1.7965e-07
3.67401e-06
-2.12589e-05
-2.09875e-07
4.34029e-06
-2.13608e-05
-2.28653e-07
4.91419e-06
-2.11493e-05
-2.377e-07
5.36107e-06
-2.06369e-05
-2.45499e-07
5.65902e-06
-1.98423e-05
-2.5958e-07
5.81878e-06
-1.88466e-05
-2.74942e-07
5.82356e-06
-1.7672e-05
-2.94294e-07
5.70753e-06
-1.64003e-05
-3.14434e-07
5.52303e-06
-1.51166e-05
-3.32682e-07
5.31845e-06
-1.38749e-05
-3.46685e-07
5.12478e-06
-1.26893e-05
-3.55005e-07
4.95461e-06
-1.15468e-05
-3.5704e-07
4.80826e-06
-1.04221e-05
-3.52522e-07
4.67882e-06
-9.28847e-06
-3.41112e-07
4.55095e-06
-8.13565e-06
-3.22865e-07
4.41516e-06
-6.98263e-06
-2.98626e-07
4.27241e-06
-5.84316e-06
-2.69421e-07
4.12729e-06
-4.70037e-06
-2.35934e-07
3.98801e-06
-3.52619e-06
-1.97883e-07
3.86866e-06
-2.28112e-06
-1.54108e-07
3.77428e-06
-8.87462e-07
-1.02331e-07
3.70506e-06
6.54906e-07
-4.33283e-08
3.55114e-06
2.15519e-06
9.42965e-09
3.29195e-06
4.19136e-06
5.68799e-08
2.84984e-06
6.75267e-06
9.04424e-08
2.18986e-06
9.87811e-06
1.00712e-07
1.39723e-06
1.34022e-05
9.25274e-08
6.94507e-07
1.65691e-05
8.28692e-08
2.1589e-07
1.79748e-05
8.21096e-08
-5.51762e-08
1.71999e-05
6.61393e-08
1.01448e-05
2.78389e-09
3.89481e-07
-6.67681e-06
-4.39107e-08
1.01587e-06
-1.51762e-05
-4.57154e-08
1.62543e-06
-1.94235e-05
-6.52898e-08
2.18451e-06
-2.10853e-05
-1.14312e-07
2.70318e-06
-2.16217e-05
-1.55861e-07
3.17199e-06
-2.16416e-05
-1.87874e-07
3.56045e-06
-2.13272e-05
-2.10427e-07
3.84305e-06
-2.06891e-05
-2.30275e-07
4.03061e-06
-1.9773e-05
-2.56679e-07
4.07633e-06
-1.86084e-05
-2.83699e-07
4.00042e-06
-1.72832e-05
-3.12705e-07
3.85159e-06
-1.59096e-05
-3.41666e-07
3.6808e-06
-1.45788e-05
-3.667e-07
3.52272e-06
-1.33316e-05
-3.85061e-07
3.39371e-06
-1.21642e-05
-3.95958e-07
3.29691e-06
-1.10502e-05
-3.99654e-07
3.2279e-06
-9.95635e-06
-3.96608e-07
3.17863e-06
-8.85202e-06
-3.87034e-07
3.1332e-06
-7.71901e-06
-3.71076e-07
3.07814e-06
-6.57773e-06
-3.49719e-07
3.01139e-06
-5.45221e-06
-3.24089e-07
2.93333e-06
-4.3275e-06
-2.94726e-07
2.84257e-06
-3.17426e-06
-2.61102e-07
2.73734e-06
-1.95385e-06
-2.21986e-07
2.62791e-06
-6.03291e-07
-1.7472e-07
2.58297e-06
8.17894e-07
-1.18062e-07
2.42815e-06
2.3733e-06
-6.33854e-08
2.20188e-06
4.41877e-06
-1.32239e-09
1.87938e-06
7.02328e-06
5.16191e-08
1.45154e-06
1.02296e-05
7.60191e-08
9.75517e-07
1.3808e-05
6.98706e-08
5.52508e-07
1.69374e-05
5.44791e-08
2.16469e-07
1.82655e-05
4.47766e-08
-1.21641e-08
1.74044e-05
2.33753e-08
1.01458e-05
-1.32259e-08
2.6908e-07
-6.92854e-06
-1.74983e-08
6.45631e-07
-1.55692e-05
1.63749e-08
9.84126e-07
-1.97708e-05
8.78262e-09
1.30201e-06
-2.13612e-05
-4.19731e-08
1.61494e-06
-2.18443e-05
-9.02985e-08
1.91485e-06
-2.18103e-05
-1.31209e-07
2.16875e-06
-2.14164e-05
-1.646e-07
2.35792e-06
-2.0683e-05
-1.95219e-07
2.47306e-06
-1.96611e-05
-2.2699e-07
2.50823e-06
-1.83804e-05
-2.63168e-07
2.48256e-06
-1.69554e-05
-3.0213e-07
2.42784e-06
-1.55146e-05
-3.40256e-07
2.36819e-06
-1.41461e-05
-3.7313e-07
2.31937e-06
-1.28847e-05
-3.98039e-07
2.28965e-06
-1.17201e-05
-4.14345e-07
2.28117e-06
-1.06191e-05
-4.22521e-07
2.2921e-06
-9.54398e-06
-4.233e-07
2.31844e-06
-8.46113e-06
-4.17216e-07
2.35208e-06
-7.34814e-06
-4.04522e-07
2.38027e-06
-6.21966e-06
-3.86273e-07
2.40123e-06
-5.10924e-06
-3.63954e-07
2.41697e-06
-4.00499e-06
-3.38294e-07
2.42957e-06
-2.87806e-06
-3.08867e-07
2.43997e-06
-1.68957e-06
-2.74796e-07
2.45492e-06
-3.83699e-07
-2.34692e-07
2.53111e-06
9.34772e-07
-1.93289e-07
2.50106e-06
2.54699e-06
-1.43907e-07
2.41269e-06
4.58909e-06
-8.22916e-08
2.26602e-06
7.18457e-06
-1.50206e-08
2.03225e-06
1.04246e-05
3.83422e-08
1.66062e-06
1.41197e-05
5.946e-08
1.14967e-06
1.73894e-05
5.85263e-08
6.07801e-07
1.87493e-05
5.73136e-08
1.42166e-07
1.78296e-05
3.93782e-08
1.02943e-05
-6.35059e-09
1.54121e-07
-7.0954e-06
1.23317e-08
3.21405e-07
-1.58177e-05
8.09124e-08
4.42581e-07
-1.99793e-05
8.71866e-08
5.61716e-07
-2.15198e-05
3.9384e-08
6.99474e-07
-2.19709e-05
-1.12704e-08
8.52553e-07
-2.19073e-05
-5.6178e-08
1.00224e-06
-2.14692e-05
-9.69849e-08
1.14966e-06
-2.06896e-05
-1.40928e-07
1.27217e-06
-1.96105e-05
-1.73206e-07
1.39307e-06
-1.82844e-05
-2.17e-07
1.51222e-06
-1.68073e-05
-2.67302e-07
1.61128e-06
-1.52999e-05
-3.13805e-07
1.68684e-06
-1.38666e-05
-3.55097e-07
1.7448e-06
-1.2555e-05
-3.87774e-07
1.79725e-06
-1.13616e-05
-4.10971e-07
1.85422e-06
-1.0251e-05
-4.25147e-07
1.92146e-06
-9.18003e-06
-4.31197e-07
2.00149e-06
-8.11124e-06
-4.29914e-07
2.09387e-06
-7.01874e-06
-4.2175e-07
2.18784e-06
-5.90607e-06
-4.07533e-07
2.28146e-06
-4.81397e-06
-3.88853e-07
2.3794e-06
-3.73636e-06
-3.66551e-07
2.49405e-06
-2.65206e-06
-3.4066e-07
2.64257e-06
-1.52692e-06
-3.11208e-07
2.82568e-06
-2.8903e-07
-2.77893e-07
2.99013e-06
1.01564e-06
-2.4554e-07
3.04597e-06
2.69918e-06
-2.084e-07
2.94783e-06
4.85071e-06
-1.64015e-07
2.64173e-06
7.60044e-06
-1.10433e-07
2.1099e-06
1.1009e-05
-5.33567e-08
1.41302e-06
1.48273e-05
-1.13908e-08
7.49458e-07
1.80479e-05
4.49721e-09
2.66788e-07
1.92207e-05
1.05562e-08
-1.01056e-08
1.81066e-05
-1.15198e-09
1.03178e-05
-3.35993e-08
7.86103e-08
-7.21283e-06
3.80955e-08
1.31964e-07
-1.60042e-05
1.32776e-07
1.39379e-07
-2.01384e-05
1.5136e-07
1.46781e-07
-2.16371e-05
1.09618e-07
1.76761e-07
-2.20612e-05
6.01548e-08
2.33921e-07
-2.19771e-05
1.24441e-08
3.16129e-07
-2.15186e-05
-3.29913e-08
4.27883e-07
-2.07235e-05
-7.81225e-08
5.69815e-07
-1.9624e-05
-1.28773e-07
7.43065e-07
-1.82835e-05
-1.74352e-07
9.35313e-07
-1.67822e-05
-2.17619e-07
1.12423e-06
-1.52223e-05
-2.66739e-07
1.27755e-06
-1.37042e-05
-3.15944e-07
1.38364e-06
-1.23047e-05
-3.56563e-07
1.4597e-06
-1.10503e-05
-3.87587e-07
1.52247e-06
-9.90521e-06
-4.08699e-07
1.58563e-06
-8.82246e-06
-4.2085e-07
1.65672e-06
-7.75733e-06
-4.25093e-07
1.73711e-06
-6.67706e-06
-4.22157e-07
1.81724e-06
-5.57355e-06
-4.12714e-07
1.8916e-06
-4.49003e-06
-3.98383e-07
1.95935e-06
-3.42436e-06
-3.79841e-07
2.02419e-06
-2.35997e-06
-3.57047e-07
2.09595e-06
-1.26889e-06
-3.29992e-07
2.17809e-06
-7.35896e-08
-2.97914e-07
2.21783e-06
1.23892e-06
-2.6359e-07
2.17075e-06
2.9689e-06
-2.23563e-07
1.95332e-06
5.24825e-06
-1.81408e-07
1.4846e-06
8.20923e-06
-1.41605e-07
7.98967e-07
1.18002e-05
-1.07107e-07
1.24934e-07
1.55823e-05
-8.22643e-08
-2.24997e-07
1.84718e-05
-7.50745e-08
-3.05402e-07
1.93764e-05
-7.69262e-08
-2.19287e-07
1.80939e-05
-7.54253e-08
1.01606e-05
-6.21016e-08
3.109e-08
-7.30607e-06
6.14304e-08
9.65066e-09
-1.61619e-05
1.78729e-07
-5.48527e-08
-2.02816e-05
2.07384e-07
-1.12801e-07
-2.17492e-05
1.69831e-07
-1.46731e-07
-2.21485e-05
1.21059e-07
-1.47959e-07
-2.20481e-05
7.20251e-08
-1.09275e-07
-2.1581e-05
2.3494e-08
-2.11456e-08
-2.07857e-05
-2.61477e-08
1.24192e-07
-1.96922e-05
-7.7347e-08
3.17335e-07
-1.83465e-05
-1.3043e-07
5.43569e-07
-1.68254e-05
-1.8335e-07
7.75801e-07
-1.52226e-05
-2.32308e-07
9.7753e-07
-1.36338e-05
-2.72323e-07
1.13399e-06
-1.21456e-05
-3.15785e-07
1.23489e-06
-1.07964e-05
-3.54993e-07
1.2983e-06
-9.58533e-06
-3.83405e-07
1.34641e-06
-8.46882e-06
-4.01808e-07
1.39326e-06
-7.39266e-06
-4.11544e-07
1.44358e-06
-6.31363e-06
-4.13721e-07
1.49224e-06
-5.21307e-06
-4.09086e-07
1.52749e-06
-4.12576e-06
-3.99428e-07
1.54111e-06
-3.05252e-06
-3.85336e-07
1.52308e-06
-1.97521e-06
-3.66558e-07
1.46306e-06
-8.6602e-07
-3.42659e-07
1.36071e-06
3.40862e-07
-3.11851e-07
1.21965e-06
1.65402e-06
-2.73728e-07
1.04867e-06
3.364e-06
-2.2375e-07
8.46332e-07
5.61664e-06
-1.65643e-07
5.88527e-07
8.57911e-06
-1.11643e-07
2.7497e-07
1.21914e-05
-7.71913e-08
2.34363e-08
1.59012e-05
-6.69988e-08
-5.51042e-08
1.86204e-05
-6.97555e-08
-6.49656e-08
1.94647e-05
-7.79122e-08
-4.96613e-08
1.81568e-05
-7.75089e-08
1.01556e-05
-4.46442e-08
-1.42546e-08
-7.37308e-06
8.03981e-08
-1.24778e-07
-1.62694e-05
2.17563e-07
-2.79668e-07
-2.03847e-05
2.57644e-07
-4.162e-07
-2.18423e-05
2.29368e-07
-5.23051e-07
-2.22293e-05
1.87394e-07
-5.93757e-07
-2.21228e-05
1.45129e-07
-6.23098e-07
-2.16561e-05
1.04106e-07
-5.94174e-07
-2.0877e-05
6.2127e-08
-4.85517e-07
-1.98163e-05
1.50885e-08
-2.85462e-07
-1.85072e-05
-3.97206e-08
-7.37276e-09
-1.7002e-05
-1.01936e-07
3.11594e-07
-1.53745e-05
-1.67447e-07
6.284e-07
-1.37204e-05
-2.30681e-07
8.96825e-07
-1.21337e-05
-2.80694e-07
1.09324e-06
-1.06755e-05
-3.17533e-07
1.23169e-06
-9.37058e-06
-3.53473e-07
1.33397e-06
-8.19198e-06
-3.79344e-07
1.42415e-06
-7.08734e-06
-3.95685e-07
1.51667e-06
-6.0025e-06
-4.03814e-07
1.61517e-06
-4.90685e-06
-4.04839e-07
1.70849e-06
-3.81864e-06
-4.00568e-07
1.79008e-06
-2.74225e-06
-3.91992e-07
1.84968e-06
-1.65571e-06
-3.79271e-07
1.85967e-06
-5.13915e-07
-3.623e-07
1.84963e-06
6.90067e-07
-3.3944e-07
1.77143e-06
2.04194e-06
-3.1009e-07
1.64819e-06
3.75364e-06
-2.66849e-07
1.52851e-06
5.94365e-06
-2.07816e-07
1.45572e-06
8.7902e-06
-1.38787e-07