/*--------------------------------*- C++ -*----------------------------------*\
| =========                 |                                                 |
| \\      /  F ield         | OpenFOAM: The Open Source CFD Toolbox           |
|  \\    /   O peration     | Version:  2.3.x                                 |
|   \\  /    A nd           | Web:      www.OpenFOAM.org                      |
|    \\/     M anipulation  |                                                 |
\*---------------------------------------------------------------------------*/
FoamFile
{
    version     2.0;
    format      ascii;
    class       volScalarField;
    location    "950";
    object      T;
}
// * * * * * * * * * * * * * * * * * * * * * * * * * * * * * * * * * * * * * //

dimensions      [0 0 0 1 0 0 0];

internalField   nonuniform List<scalar> 
78750
(
288.802
289.637
289.95
290.022
290.035
290.07
290.129
290.201
290.278
290.351
290.417
290.473
290.524
290.573
290.618
290.661
290.7
290.735
290.767
290.796
290.822
290.845
290.865
290.881
290.894
290.904
290.911
290.912
290.912
290.912
290.913
290.919
291.039
292.483
300.284
288.517
289.056
289.293
289.401
289.517
289.67
289.84
290.012
290.167
290.304
290.426
290.545
290.658
290.765
290.864
290.955
291.038
291.114
291.182
291.241
291.292
291.333
291.366
291.391
291.408
291.416
291.415
291.405
291.377
291.334
291.266
291.24
291.425
293.462
300.856
288.332
288.669
288.968
289.27
289.588
289.904
290.176
290.397
290.582
290.741
290.886
291.016
291.133
291.237
291.329
291.412
291.483
291.543
291.592
291.633
291.665
291.69
291.706
291.713
291.713
291.709
291.694
291.67
291.636
291.589
291.555
291.629
292.499
295.176
301.504
288.416
288.931
289.418
289.864
290.202
290.439
290.623
290.779
290.918
291.043
291.152
291.247
291.333
291.412
291.484
291.55
291.609
291.662
291.709
291.747
291.776
291.797
291.808
291.811
291.808
291.797
291.779
291.756
291.728
291.712
291.756
292.174
293.622
296.588
302.46
288.448
289.028
289.544
289.952
290.251
290.475
290.656
290.81
290.947
291.073
291.192
291.305
291.412
291.513
291.603
291.684
291.756
291.816
291.864
291.899
291.92
291.928
291.927
291.919
291.904
291.885
291.863
291.841
291.826
291.848
292.04
292.756
294.533
297.602
303.143
288.507
289.174
289.715
290.112
290.391
290.599
290.771
290.922
291.061
291.189
291.308
291.419
291.521
291.615
291.7
291.772
291.832
291.88
291.916
291.94
291.952
291.954
291.949
291.937
291.923
291.911
291.904
291.905
291.933
292.048
292.413
293.397
295.348
298.447
303.755
288.518
289.189
289.729
290.124
290.399
290.606
290.778
290.93
291.068
291.196
291.316
291.428
291.53
291.624
291.71
291.786
291.853
291.909
291.954
291.987
292.008
292.016
292.015
292.006
291.995
291.988
291.989
292.01
292.083
292.281
292.792
293.957
295.989
299.053
304.135
288.527
289.204
289.744
290.136
290.411
290.618
290.79
290.943
291.084
291.215
291.337
291.451
291.557
291.654
291.742
291.82
291.889
291.949
291.998
292.037
292.065
292.082
292.089
292.088
292.084
292.085
292.096
292.138
292.245
292.508
293.125
294.415
296.491
299.512
304.4
288.528
289.204
289.744
290.137
290.412
290.619
290.792
290.945
291.086
291.217
291.339
291.454
291.56
291.658
291.748
291.828
291.899
291.961
292.014
292.058
292.094
292.121
292.14
292.153
292.163
292.176
292.204
292.265
292.403
292.718
293.415
294.788
296.878
299.845
304.576
288.524
289.199
289.742
290.14
290.419
290.63
290.806
290.962
291.107
291.242
291.37
291.49
291.602
291.706
291.801
291.886
291.961
292.025
292.079
292.123
292.157
292.182
292.201
292.215
292.229
292.248
292.284
292.357
292.516
292.865
293.614
295.048
297.16
300.103
304.714
288.533
289.224
289.779
290.182
290.465
290.678
290.857
291.017
291.164
291.302
291.433
291.556
291.671
291.778
291.876
291.964
292.041
292.108
292.163
292.209
292.244
292.269
292.287
292.3
292.312
292.332
292.372
292.459
292.647
293.043
293.857
295.351
297.456
300.348
304.847
288.539
289.242
289.806
290.216
290.501
290.717
290.897
291.058
291.207
291.347
291.48
291.606
291.724
291.834
291.934
292.024
292.103
292.171
292.229
292.277
292.315
292.345
292.366
292.381
292.395
292.415
292.456
292.544
292.735
293.142
293.978
295.501
297.614
300.49
304.924
288.55
289.274
289.852
290.266
290.552
290.77
290.954
291.119
291.271
291.416
291.553
291.684
291.806
291.919
292.018
292.106
292.183
292.249
292.305
292.352
292.391
292.422
292.446
292.465
292.483
292.509
292.558
292.658
292.871
293.317
294.207
295.78
297.877
300.695
305.034
288.563
289.309
289.905
290.327
290.617
290.837
291.024
291.193
291.351
291.501
291.645
291.78
291.904
292.015
292.113
292.199
292.272
292.334
292.387
292.431
292.468
292.498
292.522
292.543
292.564
292.595
292.651
292.767
293.012
293.514
294.476
296.095
298.15
300.883
305.124
288.577
289.352
289.968
290.398
290.691
290.915
291.107
291.282
291.447
291.604
291.754
291.893
292.019
292.13
292.225
292.306
292.374
292.431
292.479
292.519
292.553
292.581
292.605
292.627
292.65
292.681
292.738
292.853
293.102
293.617
294.604
296.243
298.279
300.973
305.167
288.597
289.407
290.045
290.483
290.778
291.005
291.203
291.385
291.558
291.726
291.883
292.027
292.155
292.263
292.354
292.428
292.489
292.539
292.58
292.614
292.643
292.668
292.691
292.713
292.739
292.776
292.837
292.955
293.201
293.71
294.702
296.363
298.396
301.063
305.217
288.621
289.472
290.133
290.577
290.875
291.106
291.31
291.502
291.687
291.865
292.03
292.179
292.307
292.411
292.495
292.562
292.615
292.658
292.693
292.721
292.745
292.767
292.787
292.81
292.839
292.885
292.963
293.111
293.405
293.981
295.045
296.744
298.709
301.262
305.313
288.646
289.535
290.213
290.658
290.957
291.192
291.403
291.604
291.799
291.986
292.158
292.308
292.434
292.534
292.614
292.677
292.727
292.767
292.8
292.827
292.85
292.87
292.89
292.913
292.944
292.994
293.084
293.264
293.622
294.287
295.427
297.128
299.011
301.455
305.395
288.667
289.585
290.274
290.717
291.014
291.252
291.469
291.677
291.878
292.07
292.246
292.397
292.521
292.622
292.701
292.765
292.816
292.859
292.894
292.924
292.949
292.973
292.997
293.023
293.056
293.102
293.181
293.341
293.678
294.341
295.492
297.188
299.056
301.484
305.404
288.683
289.62
290.315
290.758
291.055
291.296
291.516
291.729
291.935
292.13
292.307
292.46
292.587
292.689
292.771
292.837
292.891
292.937
292.976
293.01
293.041
293.071
293.102
293.139
293.184
293.243
293.329
293.478
293.772
294.377
295.516
297.257
299.133
301.532
305.433
288.691
289.638
290.335
290.777
291.076
291.319
291.543
291.758
291.966
292.163
292.344
292.503
292.637
292.747
292.834
292.904
292.962
293.011
293.053
293.092
293.127
293.162
293.2
293.247
293.309
293.4
293.539
293.766
294.155
294.85
296.038
297.742
299.515
301.799
305.55
288.697
289.652
290.351
290.791
291.09
291.333
291.557
291.771
291.979
292.177
292.361
292.527
292.67
292.79
292.886
292.963
293.027
293.08
293.127
293.17
293.209
293.248
293.289
293.339
293.407
293.509
293.678
293.97
294.463
295.268
296.504
298.131
299.805
301.996
305.616
288.702
289.664
290.365
290.807
291.107
291.351
291.575
291.788
291.992
292.185
292.368
292.539
292.693
292.823
292.93
293.016
293.087
293.146
293.198
293.246
293.291
293.335
293.381
293.433
293.498
293.589
293.74
294.013
294.505
295.33
296.582
298.205
299.863
302.025
305.616
288.703
289.665
290.366
290.808
291.11
291.357
291.582
291.793
291.994
292.186
292.368
292.539
292.697
292.842
292.964
293.061
293.141
293.208
293.266
293.32
293.371
293.423
293.478
293.54
293.614
293.711
293.853
294.089
294.524
295.337
296.592
298.219
299.876
302.034
305.621
288.705
289.667
290.366
290.808
291.111
291.358
291.582
291.793
291.994
292.186
292.367
292.538
292.697
292.843
292.975
293.092
293.186
293.263
293.329
293.39
293.447
293.505
293.568
293.641
293.734
293.861
294.047
294.335
294.805
295.579
296.825
298.446
300.081
302.199
305.696
288.706
289.667
290.366
290.808
291.111
291.358
291.581
291.79
291.986
292.172
292.348
292.517
292.679
292.832
292.974
293.101
293.213
293.305
293.383
293.452
293.516
293.579
293.647
293.725
293.824
293.962
294.171
294.506
295.047
295.901
297.156
298.702
300.268
302.333
305.741
288.706
289.666
290.363
290.804
291.106
291.352
291.573
291.777
291.97
292.152
292.325
292.491
292.651
292.806
292.955
293.095
293.22
293.332
293.426
293.506
293.58
293.652
293.727
293.812
293.914
294.052
294.253
294.571
295.096
295.949
297.21
298.754
300.311
302.359
305.748
288.704
289.661
290.357
290.799
291.103
291.349
291.569
291.771
291.96
292.138
292.307
292.469
292.624
292.777
292.926
293.072
293.211
293.338
293.453
293.551
293.637
293.721
293.808
293.905
294.026
294.187
294.413
294.754
295.293
296.151
297.407
298.914
300.441
302.47
305.796
288.702
289.656
290.349
290.793
291.098
291.345
291.563
291.762
291.948
292.121
292.286
292.443
292.595
292.743
292.89
293.037
293.183
293.324
293.455
293.574
293.68
293.776
293.872
293.98
294.116
294.304
294.573
294.974
295.578
296.476
297.715
299.143
300.609
302.596
305.841
288.7
289.649
290.341
290.786
291.092
291.339
291.556
291.754
291.937
292.108
292.268
292.42
292.567
292.711
292.854
292.997
293.142
293.289
293.434
293.572
293.7
293.816
293.924
294.037
294.173
294.359
294.63
295.043
295.673
296.595
297.833
299.234
300.671
302.63
305.845
288.696
289.641
290.332
290.78
291.088
291.336
291.553
291.75
291.932
292.1
292.256
292.404
292.546
292.684
292.821
292.958
293.099
293.244
293.395
293.547
293.696
293.838
293.97
294.099
294.243
294.426
294.681
295.069
295.682
296.602
297.842
299.242
300.678
302.633
305.845
288.693
289.633
290.324
290.775
291.086
291.335
291.552
291.749
291.931
292.098
292.254
292.399
292.536
292.667
292.795
292.924
293.056
293.196
293.344
293.502
293.666
293.834
293.999
294.16
294.332
294.539
294.813
295.209
295.806
296.708
297.945
299.333
300.753
302.691
305.868
288.688
289.626
290.322
290.776
291.088
291.336
291.554
291.751
291.932
292.099
292.254
292.399
292.536
292.667
292.792
292.915
293.037
293.162
293.297
293.447
293.614
293.796
293.985
294.179
294.39
294.638
294.959
295.405
296.051
296.975
298.188
299.51
300.881
302.789
305.903
288.687
289.625
290.324
290.785
291.102
291.353
291.572
291.769
291.949
292.116
292.27
292.414
292.548
292.676
292.799
292.919
293.038
293.16
293.287
293.424
293.575
293.75
293.945
294.155
294.386
294.656
294.997
295.465
296.134
297.072
298.275
299.572
300.919
302.806
305.902
288.687
289.631
290.34
290.809
291.132
291.388
291.61
291.809
291.991
292.159
292.314
292.458
292.591
292.717
292.836
292.951
293.064
293.178
293.297
293.426
293.57
293.734
293.923
294.137
294.376
294.653
294.998
295.468
296.139
297.078
298.283
299.578
300.923
302.808
305.902
288.693
289.648
290.366
290.84
291.166
291.424
291.649
291.852
292.038
292.21
292.368
292.515
292.651
292.778
292.897
293.01
293.119
293.228
293.339
293.458
293.592
293.749
293.937
294.16
294.418
294.72
295.089
295.564
296.229
297.169
298.376
299.653
300.982
302.859
305.924
288.7
289.667
290.394
290.871
291.199
291.459
291.687
291.893
292.081
292.256
292.417
292.567
292.706
292.836
292.957
293.072
293.181
293.287
293.394
293.505
293.629
293.775
293.958
294.187
294.466
294.81
295.237
295.778
296.494
297.45
298.625
299.837
301.122
302.974
305.969
288.706
289.687
290.424
290.907
291.24
291.504
291.734
291.941
292.13
292.305
292.467
292.617
292.757
292.887
293.01
293.125
293.236
293.343
293.448
293.556
293.672
293.805
293.969
294.181
294.456
294.811
295.262
295.841
296.595
297.565
298.717
299.888
301.147
302.981
305.964
288.716
289.714
290.463
290.95
291.286
291.554
291.788
291.999
292.191
292.368
292.531
292.682
292.822
292.952
293.074
293.189
293.298
293.404
293.508
293.614
293.725
293.85
293.999
294.184
294.427
294.76
295.214
295.803
296.57
297.55
298.708
299.885
301.142
302.973
305.956
288.727
289.745
290.504
290.994
291.333
291.605
291.844
292.059
292.256
292.437
292.604
292.758
292.901
293.033
293.156
293.272
293.382
293.486
293.588
293.691
293.8
293.924
294.07
294.244
294.462
294.766
295.207
295.797
296.57
297.554
298.715
299.891
301.148
302.98
305.961
288.739
289.774
290.54
291.032
291.374
291.65
291.893
292.113
292.314
292.499
292.67
292.828
292.974
293.11
293.238
293.357
293.471
293.579
293.683
293.787
293.895
294.017
294.168
294.36
294.604
294.919
295.333
295.901
296.673
297.681
298.859
300.014
301.257
303.1
306.024
288.75
289.802
290.574
291.068
291.41
291.689
291.935
292.159
292.364
292.553
292.726
292.886
293.035
293.174
293.304
293.428
293.546
293.66
293.769
293.875
293.983
294.101
294.246
294.438
294.705
295.069
295.546
296.165
296.969
297.971
299.096
300.185
301.388
303.208
306.061
288.759
289.824
290.602
291.097
291.442
291.724
291.974
292.2
292.408
292.598
292.773
292.934
293.084
293.224
293.356
293.483
293.605
293.724
293.839
293.952
294.064
294.18
294.313
294.48
294.714
295.059
295.549
296.199
297.029
298.037
299.141
300.212
301.398
303.201
306.049
288.766
289.843
290.626
291.123
291.47
291.755
292.009
292.239
292.449
292.642
292.818
292.98
293.13
293.271
293.403
293.53
293.654
293.775
293.895
294.013
294.132
294.254
294.387
294.541
294.741
295.046
295.508
296.158
297.001
298.022
299.141
300.214
301.4
303.198
306.046
288.774
289.862
290.651
291.15
291.5
291.789
292.046
292.28
292.494
292.69
292.868
293.032
293.183
293.324
293.456
293.584
293.708
293.83
293.953
294.076
294.204
294.339
294.489
294.66
294.859
295.117
295.523
296.16
297.006
298.034
299.162
300.233
301.417
303.228
306.064
288.781
289.879
290.674
291.176
291.53
291.823
292.085
292.324
292.542
292.741
292.922
293.088
293.241
293.383
293.518
293.646
293.77
293.893
294.015
294.139
294.27
294.414
294.585
294.796
295.059
295.384
295.804
296.384
297.212
298.258
299.37
300.401
301.575
303.396
306.147
288.786
289.892
290.69
291.194
291.551
291.849
292.115
292.358
292.579
292.781
292.965
293.134
293.289
293.435
293.572
293.704
293.832
293.957
294.082
294.206
294.335
294.478
294.649
294.874
295.176
295.571
296.073
296.713
297.539
298.536
299.579
300.557
301.695
303.482
306.17
288.788
289.898
290.7
291.207
291.567
291.869
292.14
292.386
292.61
292.814
292.999
293.169
293.326
293.473
293.613
293.748
293.88
294.01
294.139
294.266
294.395
294.531
294.689
294.891
295.169
295.562
296.093
296.774
297.618
298.603
299.619
300.574
301.688
303.462
306.156
288.788
289.9
290.703
291.216
291.582
291.89
292.167
292.418
292.646
292.852
293.039
293.209
293.366
293.513
293.653
293.79
293.924
294.058
294.193
294.326
294.459
294.596
294.746
294.923
295.163
295.514
296.02
296.704
297.564
298.564
299.596
300.564
301.676
303.426
306.132
288.789
289.901
290.703
291.217
291.589
291.906
292.191
292.448
292.682
292.891
293.08
293.252
293.41
293.558
293.699
293.836
293.972
294.109
294.247
294.387
294.528
294.674
294.83
295.004
295.22
295.528
296.013
296.69
297.558
298.566
299.6
300.568
301.68
303.432
306.136
288.79
289.902
290.704
291.217
291.59
291.913
292.204
292.469
292.708
292.922
293.114
293.288
293.448
293.598
293.741
293.88
294.019
294.159
294.301
294.447
294.597
294.758
294.937
295.144
295.394
295.71
296.133
296.761
297.62
298.647
299.689
300.645
301.758
303.527
306.189
288.79
289.902
290.703
291.215
291.589
291.913
292.212
292.485
292.73
292.949
293.144
293.319
293.48
293.631
293.775
293.915
294.056
294.198
294.343
294.492
294.648
294.82
295.02
295.264
295.571
295.955
296.443
297.085
297.92
298.903
299.89
300.809
301.907
303.655
306.24
288.788
289.896
290.692
291.204
291.581
291.91
292.213
292.494
292.747
292.972
293.171
293.349
293.511
293.662
293.806
293.946
294.087
294.23
294.376
294.526
294.682
294.853
295.053
295.303
295.629
296.053
296.594
297.274
298.107
299.051
299.992
300.879
301.947
303.67
306.24
288.785
289.887
290.679
291.188
291.566
291.901
292.211
292.498
292.758
292.99
293.194
293.376
293.54
293.692
293.837
293.978
294.119
294.263
294.41
294.561
294.717
294.884
295.074
295.309
295.62
296.033
296.578
297.268
298.105
299.046
299.982
300.866
301.924
303.632
306.214
288.782
289.879
290.667
291.173
291.551
291.889
292.205
292.498
292.764
293
293.209
293.394
293.562
293.716
293.863
294.006
294.149
294.294
294.444
294.6
294.761
294.93
295.116
295.338
295.625
296.026
296.561
297.254
298.096
299.039
299.98
300.866
301.922
303.62
306.208
288.78
289.874
290.66
291.164
291.541
291.88
292.202
292.503
292.775
293.016
293.227
293.414
293.582
293.737
293.885
294.029
294.173
294.321
294.475
294.636
294.807
294.989
295.189
295.421
295.703
296.064
296.567
297.255
298.098
299.043
299.985
300.869
301.925
303.629
306.215
288.78
289.874
290.658
291.161
291.537
291.876
292.201
292.512
292.792
293.038
293.252
293.439
293.606
293.761
293.907
294.051
294.195
294.344
294.5
294.665
294.843
295.038
295.26
295.523
295.843
296.241
296.745
297.395
298.221
299.163
300.097
300.97
302.018
303.712
306.252
288.779
289.872
290.655
291.157
291.534
291.877
292.209
292.525
292.813
293.064
293.279
293.467
293.633
293.787
293.932
294.074
294.217
294.364
294.519
294.683
294.859
295.053
295.279
295.553
295.897
296.331
296.878
297.557
298.373
299.28
300.177
301.027
302.058
303.732
306.255
288.781
289.878
290.662
291.16
291.534
291.878
292.216
292.539
292.835
293.092
293.31
293.498
293.663
293.815
293.959
294.1
294.242
294.388
294.542
294.703
294.873
295.057
295.272
295.535
295.865
296.295
296.847
297.535
298.352
299.252
300.143
300.991
302.017
303.684
306.229
288.783
289.885
290.673
291.175
291.55
291.894
292.23
292.557
292.86
293.123
293.346
293.535
293.699
293.849
293.991
294.131
294.273
294.422
294.578
294.743
294.914
295.092
295.292
295.534
295.843
296.245
296.775
297.455
298.282
299.196
300.109
300.971
301.994
303.649
306.211
288.787
289.895
290.682
291.18
291.554
291.895
292.229
292.558
292.868
293.145
293.376
293.57
293.736
293.886
294.027
294.166
294.31
294.462
294.626
294.803
294.988
295.182
295.387
295.614
295.885
296.253
296.775
297.455
298.282
299.2
300.114
300.974
301.998
303.656
306.219
288.791
289.901
290.688
291.185
291.556
291.896
292.231
292.559
292.869
293.151
293.397
293.598
293.768
293.919
294.059
294.198
294.342
294.497
294.668
294.859
295.069
295.296
295.54
295.801
296.092
296.442
296.908
297.556
298.384
299.31
300.204
301.045
302.074
303.75
306.266
288.792
289.902
290.688
291.185
291.557
291.896
292.229
292.555
292.866
293.151
293.401
293.615
293.793
293.947
294.088
294.225
294.366
294.519
294.691
294.887
295.112
295.37
295.662
295.984
296.34
296.75
297.252
297.894
298.685
299.552
300.387
301.196
302.213
303.871
306.317
288.793
289.902
290.688
291.184
291.551
291.883
292.205
292.525
292.836
293.129
293.392
293.617
293.808
293.969
294.113
294.249
294.386
294.532
294.696
294.884
295.107
295.371
295.683
296.044
296.459
296.933
297.486
298.14
298.898
299.706
300.493
301.274
302.27
303.902
306.321
288.789
289.893
290.675
291.17
291.535
291.862
292.176
292.487
292.793
293.088
293.361
293.603
293.808
293.983
294.134
294.272
294.407
294.547
294.699
294.871
295.072
295.316
295.618
295.989
296.43
296.936
297.512
298.177
298.925
299.715
300.489
301.259
302.246
303.874
306.305
288.786
289.886
290.667
291.162
291.526
291.848
292.155
292.454
292.75
293.041
293.32
293.576
293.8
293.991
294.154
294.3
294.438
294.577
294.725
294.886
295.066
295.281
295.543
295.868
296.272
296.772
297.371
298.053
298.805
299.59
300.366
301.149
302.131
303.748
306.241
288.783
289.878
290.658
291.152
291.514
291.831
292.13
292.42
292.706
292.99
293.27
293.536
293.778
293.989
294.17
294.329
294.475
294.622
294.776
294.939
295.115
295.314
295.55
295.849
296.223
296.691
297.27
297.956
298.729
299.546
300.348
301.136
302.118
303.739
306.24
288.782
289.875
290.653
291.147
291.507
291.819
292.112
292.393
292.669
292.943
293.216
293.485
293.741
293.971
294.171
294.346
294.507
294.666
294.833
295.015
295.214
295.43
295.669
295.938
296.274
296.71
297.275
297.962
298.746
299.571
300.368
301.151
302.137
303.768
306.26
288.782
289.875
290.653
291.148
291.508
291.817
292.104
292.377
292.642
292.903
293.166
293.429
293.689
293.934
294.154
294.346
294.521
294.692
294.874
295.077
295.307
295.563
295.839
296.142
296.493
296.925
297.472
298.15
298.925
299.72
300.483
301.248
302.233
303.86
306.303
288.779
289.868
290.65
291.149
291.509
291.816
292.099
292.366
292.622
292.872
293.122
293.375
293.629
293.879
294.113
294.324
294.514
294.696
294.887
295.104
295.357
295.649
295.97
296.319
296.705
297.156
297.702
298.358
299.096
299.852
300.585
301.336
302.318
303.936
306.333
288.777
289.864
290.651
291.153
291.514
291.82
292.101
292.366
292.62
292.865
293.103
293.339
293.578
293.821
294.059
294.282
294.486
294.678
294.876
295.099
295.362
295.675
296.033
296.428
296.86
297.343
297.899
298.539
299.244
299.965
300.673
301.408
302.377
303.974
306.343
288.773
289.86
290.653
291.163
291.526
291.832
292.112
292.375
292.627
292.868
293.103
293.332
293.559
293.785
294.011
294.232
294.441
294.639
294.836
295.055
295.319
295.643
296.025
296.446
296.912
297.426
298
298.637
299.322
300.022
300.715
301.437
302.388
303.968
306.335
288.77
289.86
290.665
291.185
291.555
291.865
292.148
292.413
292.664
292.904
293.132
293.352
293.568
293.784
294
294.213
294.417
294.608
294.794
294.994
295.234
295.538
295.922
296.382
296.889
297.425
298.006
298.645
299.328
300.023
300.714
301.435
302.385
303.962
306.329
288.77
289.868
290.689
291.219
291.595
291.91
292.197
292.468
292.726
292.973
293.204
293.419
293.623
293.822
294.02
294.219
294.415
294.601
294.777
294.959
295.167
295.427
295.765
296.197
296.714
297.302
297.936
298.605
299.299
299.993
300.679
301.396
302.338
303.902
306.298
288.775
289.892
290.73
291.27
291.653
291.974
292.271
292.553
292.824
293.08
293.317
293.531
293.726
293.91
294.091
294.273
294.454
294.628
294.793
294.963
295.152
295.375
295.657
296.026
296.494
297.056
297.694
298.381
299.093
299.808
300.519
301.254
302.201
303.778
306.242
288.793
289.945
290.803
291.353
291.745
292.079
292.389
292.686
292.973
293.243
293.486
293.698
293.882
294.05
294.211
294.372
294.535
294.695
294.85
295.009
295.183
295.386
295.642
295.968
296.386
296.905
297.517
298.204
298.942
299.705
300.456
301.21
302.164
303.753
306.235
288.819
290.013
290.888
291.444
291.843
292.189
292.514
292.832
293.143
293.433
293.689
293.902
294.078
294.23
294.371
294.51
294.652
294.795
294.943
295.098
295.266
295.457
295.687
295.983
296.384
296.889
297.493
298.184
298.936
299.705
300.457
301.21
302.165
303.758
306.24
288.853
290.09
290.968
291.522
291.924
292.279
292.622
292.964
293.299
293.613
293.883
294.099
294.272
294.414
294.539
294.66
294.783
294.913
295.054
295.209
295.384
295.586
295.827
296.121
296.484
296.95
297.536
298.23
298.995
299.771
300.514
301.26
302.225
303.836
306.287
288.881
290.147
291.023
291.568
291.971
292.332
292.678
293.017
293.351
293.676
293.975
294.225
294.414
294.558
294.679
294.79
294.901
295.021
295.159
295.316
295.501
295.724
295.997
296.332
296.738
297.225
297.808
298.482
299.215
299.951
300.663
301.393
302.355
303.957
306.339
288.89
290.159
291.029
291.572
291.975
292.336
292.681
293.018
293.35
293.674
293.978
294.245
294.466
294.641
294.775
294.888
294.997
295.111
295.24
295.391
295.574
295.803
296.094
296.456
296.894
297.41
297.999
298.656
299.353
300.052
300.736
301.451
302.404
303.991
306.345
288.889
290.155
291.022
291.561
291.961
292.315
292.647
292.966
293.281
293.598
293.912
294.207
294.462
294.667
294.826
294.955
295.068
295.18
295.3
295.439
295.607
295.817
296.087
296.438
296.88
297.405
298.002
298.657
299.346
300.036
300.714
301.426
302.377
303.965
306.332
288.884
290.148
291.015
291.556
291.956
292.31
292.642
292.957
293.258
293.552
293.853
294.151
294.427
294.663
294.853
295.004
295.132
295.248
295.365
295.493
295.643
295.831
296.078
296.391
296.793
297.296
297.887
298.543
299.236
299.936
300.625
301.342
302.285
303.872
306.286
288.887
290.16
291.029
291.57
291.972
292.326
292.655
292.963
293.256
293.543
293.831
294.123
294.408
294.664
294.881
295.057
295.205
295.335
295.458
295.584
295.722
295.886
296.094
296.387
296.768
297.25
297.833
298.494
299.201
299.916
300.613
301.327
302.268
303.858
306.28
288.892
290.17
291.04
291.582
291.986
292.341
292.668
292.971
293.256
293.53
293.806
294.093
294.383
294.659
294.902
295.107
295.281
295.433
295.575
295.716
295.862
296.024
296.214
296.454
296.788
297.253
297.833
298.496
299.206
299.921
300.615
301.329
302.272
303.864
306.287
288.893
290.174
291.044
291.587
291.993
292.352
292.681
292.983
293.263
293.528
293.788
294.057
294.341
294.628
294.896
295.131
295.335
295.515
295.684
295.851
296.027
296.216
296.43
296.686
297.011
297.427
297.967
298.615
299.316
300.011
300.685
301.394
302.346
303.945
306.327
288.9
290.192
291.066
291.612
292.022
292.385
292.716
293.017
293.289
293.542
293.788
294.038
294.306
294.587
294.864
295.12
295.348
295.553
295.746
295.942
296.151
296.38
296.637
296.934
297.289
297.723
298.251
298.863
299.518
300.172
300.818
301.512
302.455
304.033
306.363
288.903
290.199
291.075
291.625
292.041
292.41
292.747
293.049
293.319
293.563
293.796
294.03
294.276
294.543
294.819
295.085
295.329
295.55
295.759
295.971
296.2
296.457
296.75
297.086
297.475
297.928
298.45
299.031
299.647
300.268
300.893
301.572
302.5
304.057
306.366
288.904
290.203
291.082
291.636
292.057
292.434
292.776
293.082
293.35
293.59
293.811
294.031
294.261
294.51
294.775
295.041
295.295
295.528
295.749
295.969
296.203
296.465
296.768
297.118
297.523
297.988
298.511
299.081
299.68
300.286
300.903
301.576
302.496
304.045
306.357
288.906
290.211
291.095
291.653
292.082
292.468
292.818
293.128
293.396
293.63
293.842
294.047
294.26
294.491
294.745
295.011
295.272
295.518
295.748
295.974
296.211
296.472
296.771
297.12
297.526
297.991
298.514
299.085
299.682
300.287
300.901
301.574
302.494
304.038
306.352
288.906
290.214
291.101
291.664
292.101
292.498
292.858
293.172
293.441
293.671
293.877
294.07
294.267
294.48
294.716
294.976
295.245
295.506
295.752
295.994
296.246
296.519
296.827
297.18
297.588
298.054
298.574
299.137
299.722
300.314
300.919
301.588
302.506
304.05
306.359
288.906
290.219
291.11
291.679
292.126
292.536
292.907
293.227
293.497
293.725
293.925
294.108
294.289
294.48
294.692
294.928
295.186
295.455
295.724
295.986
296.248
296.533
296.853
297.221
297.642
298.117
298.638
299.192
299.764
300.343
300.942
301.607
302.521
304.058
306.36
288.906
290.224
291.121
291.696
292.155
292.579
292.962
293.288
293.559
293.786
293.982
294.161
294.332
294.507
294.695
294.9
295.128
295.377
295.64
295.91
296.19
296.488
296.818
297.194
297.623
298.103
298.624
299.173
299.737
300.312
300.908
301.574
302.49
304.027
306.344
288.908
290.235
291.135
291.718
292.19
292.631
293.026
293.358
293.63
293.856
294.05
294.225
294.393
294.563
294.74
294.926
295.128
295.356
295.602
295.861
296.129
296.415
296.731
297.091
297.506
297.978
298.498
299.055
299.633
300.225
300.834
301.506
302.424
303.971
306.317
288.915
290.254
291.157
291.747
292.233
292.693
293.1
293.438
293.71
293.932
294.123
294.296
294.464
294.635
294.814
295.001
295.193
295.397
295.62
295.862
296.123
296.401
296.708
297.057
297.463
297.93
298.454
299.022
299.614
300.215
300.827
301.5
302.42
303.971
306.319
288.924
290.277
291.181
291.777
292.278
292.757
293.177
293.519
293.79
294.009
294.196
294.366
294.533
294.707
294.896
295.096
295.304
295.515
295.729
295.948
296.177
296.43
296.718
297.059
297.463
297.93
298.456
299.025
299.618
300.219
300.83
301.502
302.424
303.985
306.331
288.935
290.301
291.206
291.807
292.324
292.821
293.253
293.599
293.868
294.083
294.264
294.429
294.592
294.768
294.964
295.181
295.412
295.645
295.871
296.094
296.321
296.564
296.837
297.156
297.541
298.003
298.533
299.11
299.703
300.293
300.893
301.56
302.487
304.045
306.36
288.944
290.322
291.229
291.836
292.365
292.878
293.322
293.671
293.939
294.148
294.324
294.482
294.638
294.807
295.002
295.23
295.486
295.748
295.999
296.239
296.475
296.722
296.996
297.316
297.699
298.155
298.676
299.237
299.812
300.388
300.98
301.646
302.573
304.119
306.391
288.953
290.343
291.254
291.866
292.407
292.934
293.388
293.74
294.005
294.21
294.379
294.529
294.675
294.831
295.014
295.237
295.506
295.795
296.078
296.345
296.604
296.867
297.151
297.474
297.852
298.293
298.794
299.334
299.891
300.455
301.042
301.708
302.637
304.174
306.412
288.96
290.362
291.279
291.898
292.449
292.99
293.451
293.805
294.067
294.267
294.43
294.572
294.707
294.848
295.009
295.212
295.475
295.78
296.087
296.384
296.671
296.958
297.261
297.595
297.975
298.406
298.889
299.41
299.953
300.509
301.089
301.746
302.665
304.187
306.412
288.967
290.383
291.311
291.937
292.5
293.054
293.522
293.876
294.135
294.329
294.485
294.62
294.744
294.869
295.006
295.176
295.407
295.703
296.035
296.363
296.674
296.983
297.304
297.651
298.038
298.47
298.945
299.454
299.985
300.532
301.104
301.754
302.664
304.179
306.405
288.975
290.405
291.344
291.978
292.55
293.116
293.592
293.948
294.204
294.394
294.543
294.671
294.786
294.897
295.014
295.156
295.347
295.608
295.935
296.289
296.635
296.969
297.306
297.665
298.057
298.489
298.959
299.46
299.984
300.527
301.099
301.748
302.651
304.156
306.392
288.982
290.426
291.376
292.018
292.596
293.173
293.659
294.02
294.276
294.463
294.608
294.729
294.836
294.937
295.039
295.155
295.304
295.518
295.818
296.187
296.576
296.949
297.302
297.665
298.057
298.487
298.955
299.457
299.981
300.525
301.097
301.746
302.649
304.152
306.388
288.988
290.446
291.408
292.055
292.637
293.22
293.715
294.084
294.346
294.534
294.677
294.794
294.895
294.988
295.079
295.176
295.292
295.45
295.684
296.009
296.406
296.827
297.241
297.643
298.048
298.48
298.946
299.44
299.959
300.498
301.069
301.717
302.618
304.118
306.369
288.995
290.47
291.449
292.103
292.687
293.273
293.772
294.147
294.414
294.605
294.749
294.865
294.965
295.054
295.138
295.222
295.316
295.437
295.608
295.849
296.175
296.571
297.004
297.444
297.886
298.339
298.811
299.306
299.825
300.37
300.947
301.598
302.494
304.002
306.314
289.008
290.509
291.503
292.165
292.752
293.339
293.839
294.217
294.487
294.679
294.824
294.94
295.04
295.128
295.208
295.286
295.371
295.474
295.613
295.807
296.065
296.394
296.791
297.232
297.698
298.179
298.677
299.198
299.743
300.308
300.896
301.55
302.448
303.969
306.304
289.023
290.549
291.558
292.225
292.813
293.4
293.904
294.285
294.557
294.75
294.894
295.011
295.11
295.199
295.28
295.358
295.443
295.543