/*--------------------------------*- C++ -*----------------------------------*\
| =========                 |                                                 |
| \\      /  F ield         | OpenFOAM: The Open Source CFD Toolbox           |
|  \\    /   O peration     | Version:  2.0.x                                 |
|   \\  /    A nd           | Web:      www.OpenFOAM.org                      |
|    \\/     M anipulation  |                                                 |
\*---------------------------------------------------------------------------*/
FoamFile
{
    version     2.0;
    format      ascii;
    class       volScalarField;
    location    "950";
    object      T;
}
// * * * * * * * * * * * * * * * * * * * * * * * * * * * * * * * * * * * * * //

dimensions      [0 0 0 1 0 0 0];

internalField   nonuniform List<scalar> 
78750
(
288.603
289.224
289.563
289.749
289.876
289.995
290.11
290.213
290.304
290.385
290.459
290.527
290.589
290.645
290.695
290.74
290.78
290.815
290.843
290.866
290.882
290.896
290.895
290.894
290.885
290.876
290.866
290.855
290.845
290.834
290.827
290.843
291.099
293.165
300.756
288.401
288.786
289.057
289.325
289.594
289.841
290.058
290.252
290.429
290.589
290.734
290.865
290.985
291.093
291.191
291.279
291.358
291.426
291.483
291.53
291.566
291.591
291.604
291.604
291.595
291.568
291.513
291.442
291.352
291.242
291.122
291.108
291.406
293.762
301.056
288.37
288.781
289.175
289.567
289.93
290.24
290.49
290.691
290.856
290.998
291.124
291.237
291.34
291.431
291.511
291.583
291.646
291.699
291.742
291.776
291.802
291.82
291.831
291.831
291.821
291.798
291.754
291.683
291.587
291.47
291.4
291.531
292.54
295.305
301.833
288.425
288.951
289.44
289.868
290.193
290.428
290.611
290.768
290.911
291.045
291.17
291.286
291.392
291.488
291.574
291.65
291.714
291.766
291.805
291.833
291.851
291.861
291.861
291.854
291.836
291.805
291.759
291.7
291.641
291.631
291.752
292.343
293.791
296.672
302.758
288.449
289.032
289.557
289.987
290.312
290.559
290.759
290.933
291.089
291.231
291.363
291.487
291.603
291.711
291.804
291.882
291.94
291.978
291.998
292.001
291.996
291.981
291.957
291.927
291.892
291.849
291.8
291.756
291.745
291.815
292.149
293.038
294.702
297.611
303.407
288.508
289.203
289.796
290.242
290.553
290.783
290.973
291.143
291.299
291.447
291.587
291.719
291.841
291.951
292.044
292.116
292.161
292.173
292.165
292.142
292.105
292.062
292.019
291.977
291.936
291.898
291.87
291.867
291.919
292.124
292.658
293.784
295.552
298.42
303.938
288.558
289.316
289.917
290.341
290.631
290.852
291.041
291.211
291.368
291.517
291.656
291.786
291.906
292.015
292.11
292.189
292.247
292.281
292.28
292.247
292.196
292.14
292.086
292.037
291.996
291.968
291.96
291.988
292.101
292.399
293.069
294.344
296.169
298.993
304.276
288.585
289.361
289.949
290.354
290.638
290.857
291.045
291.215
291.373
291.521
291.66
291.789
291.909
292.017
292.112
292.191
292.25
292.287
292.299
292.278
292.237
292.188
292.142
292.101
292.072
292.06
292.076
292.144
292.316
292.703
293.495
294.879
296.718
299.47
304.534
288.59
289.365
289.95
290.354
290.633
290.848
291.032
291.197
291.35
291.492
291.626
291.751
291.867
291.974
292.072
292.158
292.23
292.283
292.311
292.318
292.299
292.262
292.221
292.186
292.166
292.168
292.205
292.305
292.527
292.984
293.861
295.316
297.158
299.843
304.704
288.583
289.348
289.932
290.335
290.612
290.823
291.003
291.166
291.316
291.457
291.589
291.712
291.826
291.93
292.024
292.108
292.181
292.245
292.298
292.333
292.35
292.344
292.321
292.293
292.277
292.284
292.333
292.454
292.708
293.215
294.155
295.659
297.499
300.129
304.825
288.578
289.342
289.935
290.347
290.629
290.843
291.025
291.19
291.343
291.488
291.624
291.752
291.87
291.973
292.06
292.133
292.196
292.251
292.299
292.34
292.371
292.389
292.392
292.386
292.38
292.389
292.437
292.558
292.816
293.334
294.296
295.825
297.677
300.288
304.888
288.585
289.376
290.002
290.437
290.731
290.953
291.144
291.319
291.485
291.644
291.795
291.933
292.052
292.147
292.219
292.271
292.31
292.342
292.369
292.394
292.417
292.434
292.447
292.456
292.467
292.491
292.552
292.685
292.957
293.496
294.487
296.043
297.898
300.482
304.979
288.617
289.468
290.137
290.595
290.903
291.14
291.346
291.537
291.72
291.895
292.058
292.2
292.313
292.396
292.451
292.482
292.496
292.502
292.505
292.507
292.509
292.511
292.515
292.523
292.541
292.579
292.656
292.809
293.108
293.682
294.711
296.287
298.13
300.675
305.07
288.641
289.531
290.224
290.699
291.023
291.277
291.499
291.706
291.902
292.087
292.255
292.399
292.514
292.595
292.647
292.673
292.678
292.673
292.663
292.65
292.636
292.622
292.61
292.606
292.618
292.656
292.738
292.899
293.209
293.798
294.846
296.437
298.278
300.802
305.132
288.659
289.57
290.267
290.735
291.054
291.306
291.529
291.736
291.931
292.115
292.283
292.435
292.568
292.677
292.747
292.787
292.803
292.804
292.795
292.782
292.765
292.745
292.725
292.711
292.714
292.749
292.837
293.01
293.34
293.954
295.028
296.635
298.461
300.948
305.203
288.672
289.592
290.28
290.741
291.057
291.308
291.531
291.738
291.933
292.116
292.285
292.437
292.57
292.684
292.778
292.844
292.881
292.899
292.903
292.899
292.887
292.87
292.85
292.832
292.83
292.86
292.951
293.14
293.498
294.15
295.262
296.878
298.676
301.113
305.276
288.674
289.593
290.28
290.737
291.053
291.304
291.527
291.735
291.929
292.111
292.279
292.431
292.565
292.681
292.779
292.861
292.926
292.966
292.988
292.996
292.994
292.985
292.971
292.957
292.954
292.982
293.074
293.274
293.655
294.341
295.484
297.1
298.867
301.257
305.336
288.668
289.573
290.244
290.693
291.006
291.256
291.478
291.682
291.873
292.053
292.22
292.375
292.518
292.647
292.76
292.856
292.936
293.004
293.052
293.079
293.092
293.095
293.09
293.081
293.081
293.109
293.203
293.412
293.815
294.531
295.699
297.307
299.045
301.392
305.389
288.654
289.533
290.189
290.628
290.932
291.176
291.391
291.589
291.776
291.953
292.12
292.279
292.43
292.571
292.701
292.818
292.92
293.004
293.075
293.132
293.167
293.187
293.196
293.198
293.204
293.234
293.325
293.535
293.949
294.685
295.869
297.468
299.181
301.492
305.424
288.645
289.514
290.164
290.6
290.902
291.141
291.35
291.541
291.719
291.887
292.048
292.203
292.352
292.495
292.632
292.76
292.878
292.983
293.073
293.147
293.21
293.253
293.282
293.301
293.318
293.353
293.442
293.648
294.064
294.811
296.007
297.601
299.296
301.58
305.455
288.64
289.502
290.153
290.595
290.9
291.139
291.349
291.54
291.717
291.883
292.038
292.185
292.325
292.459
292.589
292.715
292.836
292.95
293.054
293.147
293.227
293.293
293.344
293.384
293.421
293.469
293.562
293.764
294.174
294.923
296.126
297.715
299.396
301.656
305.484
288.634
289.488
290.137
290.581
290.89
291.133
291.344
291.537
291.715
291.881
292.037
292.184
292.324
292.456
292.582
292.703
292.818
292.93
293.037
293.138
293.229
293.311
293.383
293.446
293.506
293.577
293.691
293.908
294.329
295.089
296.3
297.877
299.536
301.766
305.527
288.631
289.481
290.132
290.578
290.888
291.131
291.344
291.537
291.717
291.886
292.045
292.194
292.334
292.466
292.59
292.708
292.821
292.929
293.034
293.135
293.233
293.324
293.41
293.491
293.572
293.666
293.807
294.054
294.505
295.293
296.515
298.07
299.699
301.895
305.578
288.63
289.481
290.136
290.587
290.9
291.147
291.362
291.558
291.742
291.913
292.075
292.226
292.367
292.498
292.621
292.737
292.846
292.951
293.051
293.149
293.245
293.339
293.432
293.524
293.619
293.73
293.887
294.15
294.617
295.417
296.642
298.181
299.79
301.961
305.601
288.632
289.492
290.155
290.612
290.93
291.18
291.399
291.599
291.786
291.961
292.126
292.28
292.423
292.555
292.678
292.792
292.898
292.998
293.094
293.187
293.279
293.371
293.465
293.562
293.667
293.791
293.961
294.235
294.706
295.506
296.729
298.264
299.861
302.012
305.62
288.64
289.513
290.186
290.649
290.971
291.225
291.448
291.652
291.843
292.023
292.192
292.35
292.496
292.631
292.755
292.868
292.972
293.069
293.161
293.249
293.336
293.423
293.514
293.611
293.72
293.855
294.04
294.329
294.817
295.628
296.855
298.379
299.959
302.085
305.647
288.647
289.533
290.216
290.685
291.011
291.269
291.496
291.705
291.901
292.085
292.259
292.422
292.573
292.712
292.838
292.953
293.058
293.154
293.243
293.327
293.41
293.493
293.58
293.674
293.784
293.921
294.112
294.411
294.911
295.731
296.962
298.479
300.043
302.147
305.671
288.653
289.549
290.239
290.711
291.041
291.303
291.534
291.747
291.947
292.136
292.314
292.482
292.638
292.782
292.914
293.033
293.141
293.239
293.329
293.413
293.494
293.574
293.658
293.751
293.862
294.005
294.204
294.515
295.03
295.864
297.101
298.606
300.151
302.23
305.704
288.66
289.568
290.265
290.739
291.069
291.333
291.567
291.783
291.986
292.179
292.361
292.533
292.694
292.843
292.98
293.105
293.218
293.32
293.412
293.498
293.579
293.659
293.742
293.834
293.946
294.093
294.303
294.633
295.172
296.028
297.271
298.754
300.274
302.325
305.742
288.669
289.594
290.299
290.776
291.107
291.373
291.609
291.827
292.034
292.229
292.414
292.588
292.753
292.906
293.047
293.176
293.293
293.4
293.497
293.586
293.668
293.748
293.83
293.922
294.035
294.186
294.406
294.752
295.311
296.183
297.429
298.89
300.386
302.413
305.777
288.678
289.616
290.33
290.81
291.144
291.413
291.652
291.874
292.084
292.282
292.471
292.648
292.815
292.971
293.115
293.247
293.368
293.478
293.58
293.674
293.761
293.844
293.926
294.016
294.127
294.279
294.505
294.868
295.452
296.347
297.593
299.026
300.494
302.493
305.807
288.685
289.635
290.355
290.837
291.172
291.444
291.687
291.913
292.126
292.328
292.52
292.701
292.871
293.029
293.176
293.311
293.436
293.552
293.659
293.758
293.851
293.939
294.025
294.116
294.221
294.362
294.575
294.931
295.519
296.421
297.668
299.09
300.539
302.514
305.811
288.692
289.654
290.379
290.862
291.198
291.47
291.714
291.943
292.159
292.364
292.559
292.742
292.913
293.074
293.224
293.363
293.493
293.614
293.727
293.834
293.934
294.03
294.123
294.219
294.327
294.459
294.649
294.97
295.528
296.427
297.674
299.098
300.545
302.517
305.81
288.7
289.673
290.406
290.891
291.229
291.503
291.75
291.981
292.199
292.406
292.601
292.784
292.955
293.116
293.266
293.407
293.54
293.665
293.784
293.898
294.006
294.111
294.214
294.322
294.443
294.589
294.787
295.102
295.638
296.511
297.767
299.202
300.642
302.587
305.836
288.707
289.692
290.432
290.921
291.262
291.541
291.793
292.028
292.251
292.461
292.658
292.84
293.01
293.168
293.316
293.455
293.586
293.712
293.834
293.953
294.068
294.181
294.294
294.415
294.553
294.724
294.958
295.315
295.889
296.786
298.035
299.417
300.82
302.746
305.906
288.713
289.709
290.455
290.947
291.292
291.575
291.833
292.076
292.305
292.521
292.721
292.906
293.075
293.231
293.376
293.512
293.641
293.765
293.887
294.007
294.126
294.244
294.365
294.494
294.645
294.837
295.105
295.513
296.141
297.065
298.293
299.614
300.971
302.863
305.951
288.72
289.725
290.476
290.97
291.317
291.604
291.867
292.115
292.351
292.573
292.779
292.968
293.139
293.295
293.439
293.573
293.7
293.822
293.943
294.064
294.185
294.307
294.434
294.569
294.723
294.912
295.178
295.595
296.244
297.19
298.415
299.712
301.044
302.908
305.962
288.725
289.739
290.495
290.991
291.34
291.631
291.897
292.15
292.391
292.618
292.829
293.022
293.196
293.354
293.499
293.633
293.758
293.879
293.999
294.12
294.243
294.369
294.501
294.644
294.804
294.993
295.249
295.64
296.265
297.208
298.445
299.741
301.067
302.925
305.967
288.73
289.75
290.509
291.007
291.359
291.653
291.924
292.181
292.426
292.659
292.874
293.071
293.249
293.409
293.555
293.689
293.815
293.936
294.055
294.176
294.3
294.429
294.566
294.72
294.899
295.115
295.399
295.806
296.43
297.371
298.601
299.865
301.169
303.019
306.007
288.734
289.759
290.521
291.021
291.375
291.672
291.946
292.208
292.459
292.696
292.916
293.117
293.299
293.461
293.608
293.743
293.87
293.991
294.111
294.233
294.357
294.487
294.627
294.789
294.986
295.241
295.584
296.056
296.724
297.668
298.866
300.07
301.336
303.165
306.067
288.736
289.766
290.531
291.032
291.387
291.687
291.964
292.229
292.484
292.726
292.952
293.158
293.344
293.51
293.659
293.796
293.923
294.046
294.166
294.289
294.414
294.544
294.683
294.841
295.035
295.294
295.66
296.184
296.904
297.859
299.018
300.175
301.406
303.207
306.074
288.738
289.771
290.537
291.039
291.397
291.698
291.978
292.246
292.504
292.75
292.98
293.191
293.382
293.553
293.706
293.845
293.975
294.098
294.22
294.344
294.471
294.603
294.743
294.897
295.079
295.315
295.662
296.174
296.9
297.882
299.035
300.188
301.407
303.194
306.062
288.739
289.773
290.541
291.044
291.403
291.706
291.988
292.258
292.518
292.767
293.001
293.218
293.414
293.591
293.748
293.891
294.023
294.149
294.273
294.399
294.53
294.667
294.814
294.975
295.159
295.381
295.688
296.174
296.899
297.878
299.04
300.194
301.412
303.193
306.062
288.74
289.775
290.542
291.047
291.407
291.712
291.995
292.267
292.529
292.779
293.017
293.237
293.44
293.622
293.785
293.933
294.069
294.197
294.323
294.452
294.586
294.729
294.886
295.063
295.272
295.53
295.865
296.32
296.994
297.954
299.137
300.288
301.496
303.268
306.1
288.74
289.775
290.542
291.047
291.408
291.714
291.999
292.271
292.533
292.784
293.024
293.25
293.458
293.646
293.816
293.968
294.107
294.238
294.366
294.496
294.631
294.776
294.933
295.113
295.331
295.617
296.004
296.529
297.247
298.203
299.342
300.439
301.612
303.352
306.127
288.74
289.775
290.542
291.047
291.408
291.714
291.999
292.271
292.533
292.784
293.025
293.254
293.469
293.665
293.842
294.001
294.145
294.28
294.41
294.541
294.676
294.818
294.971
295.139
295.341
295.611
295.989
296.523
297.262
298.233
299.368
300.454
301.613
303.335
306.113
288.739
289.774
290.542
291.046
291.408
291.714
291.999
292.271
292.533
292.784
293.024
293.253
293.472
293.678
293.865
294.032
294.184
294.324
294.459
294.595
294.734
294.881
295.036
295.201
295.386
295.622
295.973
296.486
297.224
298.206
299.355
300.454
301.613
303.325
306.106
288.74
289.774
290.541
291.045
291.407
291.714
291.999
292.271
292.532
292.783
293.024
293.253
293.472
293.681
293.879
294.058
294.219
294.367
294.509
294.652
294.8
294.959
295.131
295.316
295.521
295.758
296.061
296.515
297.23
298.215
299.369
300.469
301.625
303.347
306.12
288.74
289.773
290.538
291.041
291.402
291.709
291.994
292.265
292.525
292.774
293.014
293.246
293.468
293.681
293.882
294.072
294.245
294.403
294.552
294.701
294.857
295.027
295.218
295.44
295.701
296.01
296.386
296.878
297.566
298.529
299.657
300.698
301.822
303.536
306.206
288.738
289.768
290.532
291.034
291.394
291.7
291.982
292.25
292.507
292.754
292.992
293.223
293.448
293.667
293.876
294.073
294.257
294.425
294.581
294.735
294.893
295.065
295.262
295.505
295.811
296.197
296.67
297.255
298.001
298.938
299.971
300.928
302.004
303.687
306.264
288.736
289.762
290.525
291.027
291.387
291.692
291.974
292.24
292.494
292.737
292.971
293.199
293.423
293.643
293.857
294.063
294.257
294.437
294.603
294.76
294.917
295.082
295.267
295.496
295.802
296.212
296.735
297.38
298.165
299.093
300.08
301
302.048
303.703
306.263
288.732
289.757
290.521
291.023
291.383
291.686
291.965
292.228
292.479
292.719
292.95
293.175
293.396
293.616
293.834
294.049
294.254
294.448
294.629
294.796
294.954
295.108
295.266
295.451
295.697
296.054
296.57
297.252
298.084
299.034
300.014
300.916
301.946
303.596
306.208
288.73
289.755
290.519
291.022
291.381
291.683
291.961
292.224
292.472
292.709
292.937
293.159
293.378
293.596
293.815
294.035
294.254
294.467
294.667
294.853
295.024
295.178
295.321
295.471
295.66
295.913
296.282
296.839
297.609
298.565
299.61
300.613
301.69
303.325
306.079
288.729
289.758
290.523
291.025
291.384
291.687
291.964
292.222
292.468
292.704
292.93
293.148
293.364
293.58
293.801
294.028
294.261
294.495
294.725
294.943
295.144
295.319
295.47
295.609
295.751
295.934
296.234
296.695
297.401
298.365
299.487
300.555
301.658
303.296
306.072
288.734
289.771
290.536
291.036
291.395
291.697
291.972
292.23
292.474
292.706
292.929
293.146
293.36
293.574
293.795
294.026
294.274
294.54
294.816
295.083
295.332
295.553
295.747
295.919
296.076
296.232
296.432
296.797
297.452
298.432
299.568
300.602
301.695
303.371
306.12
288.743
289.788
290.552
291.05
291.407
291.71
291.986
292.244
292.489
292.72
292.94
293.153
293.362
293.573
293.792
294.026
294.28
294.565
294.884
295.232
295.57
295.876
296.154
296.406
296.64
296.879
297.174
297.613
298.294
299.207
300.179
301.076
302.111
303.761
306.3
288.75
289.798
290.563
291.059
291.415
291.717
291.993
292.252
292.496
292.727
292.947
293.158
293.364
293.57
293.78
294.004
294.257
294.549
294.898
295.298
295.714
296.122
296.508
296.868
297.212
297.569
297.983
298.513
299.198
299.997
300.793
301.565
302.54
304.13
306.449
288.752
289.803
290.569
291.066
291.422
291.724
292
292.259
292.502
292.733
292.951
293.161
293.367
293.571
293.777
293.989
294.213
294.472
294.789
295.178
295.631
296.122
296.607
297.07
297.517
297.972
298.47
299.044
299.704
300.409
301.1
301.808
302.745
304.278
306.493
288.753
289.805
290.576
291.077
291.436
291.739
292.017
292.276
292.52
292.748
292.964
293.171
293.372
293.573
293.778
293.989
294.207
294.434
294.687
294.996
295.399
295.896
296.455
297.016
297.535
298.05
298.593
299.185
299.829
300.497
301.161
301.855
302.772
304.28
306.484
288.749
289.805
290.583
291.089
291.452
291.759
292.04
292.303
292.548
292.778
292.994
293.199
293.396
293.591
293.79
293.995
294.209
294.428
294.653
294.891
295.164
295.514
295.962
296.513
297.16
297.838
298.515
299.166
299.819
300.487
301.153
301.847
302.759
304.264
306.471
288.748
289.806
290.59
291.101
291.466
291.776
292.06
292.325
292.572
292.804
293.022
293.228
293.427
293.623
293.824
294.034
294.254
294.479
294.696
294.898
295.094
295.307
295.569
295.916
296.377
296.961
297.65
298.426
299.223
299.986
300.695
301.404
302.319
303.85
306.284
288.75
289.821
290.611
291.122
291.49
291.803
292.089
292.357
292.608
292.842
293.061
293.268
293.467
293.666
293.871
294.091
294.331
294.583
294.827
295.041
295.218
295.372
295.538
295.745
296.014
296.372
296.857
297.482
298.229
299.046
299.888
300.75
301.757
303.339
306.069
288.76
289.851
290.647
291.158
291.526
291.842
292.132
292.403
292.657
292.895
293.116
293.325
293.526
293.728
293.941
294.178
294.448
294.746
295.041
295.295
295.496
295.651
295.77
295.881
296.028
296.281
296.639
297.155
297.852
298.715
299.677
300.612
301.644
303.266
306.049
288.775
289.883
290.679
291.187
291.556
291.875
292.17
292.446
292.706
292.948
293.174
293.385
293.587
293.788
294.002
294.248
294.55
294.917
295.306
295.641
295.903
296.104
296.252
296.358
296.436
296.52
296.722
297.16
297.852
298.733
299.703
300.624
301.657
303.309
306.088
288.788
289.904
290.696
291.2
291.567
291.886
292.181
292.459
292.721
292.966
293.193
293.406
293.609
293.81
294.025
294.275
294.592
295
295.473
295.929
296.303
296.599
296.826
297
297.146
297.3
297.539
297.946
298.609
299.466
300.326
301.129
302.11
303.746
306.293
288.797
289.919
290.714
291.22
291.588
291.907
292.204
292.484
292.749
292.995
293.223
293.434
293.632
293.825
294.023
294.249
294.539
294.939
295.457
296.009
296.508
296.932
297.279
297.57
297.841
298.13
298.492
298.983
299.621
300.336
301.031
301.73
302.653
304.195
306.468
288.8
289.923
290.717
291.222
291.59
291.909
292.206
292.488
292.753
293.001
293.231
293.443
293.64
293.826
294.009
294.205
294.439
294.758
295.212
295.783
296.384
296.938
297.4
297.804
298.19
298.592
299.041
299.567
300.164
300.782
301.389
302.038
302.926
304.395
306.531
288.796
289.91
290.707
291.215
291.584
291.905
292.205
292.488
292.754
293.001
293.232
293.444
293.641
293.827
294.006
294.179
294.364
294.592
294.909
295.355
295.922
296.563
297.192
297.741
298.207
298.669
299.161
299.7
300.277
300.866
301.458
302.096
302.96
304.4
306.523
288.79
289.899
290.7
291.211
291.583
291.905
292.204
292.487
292.756
293.006
293.238
293.451
293.648
293.831
294.005
294.175
294.346
294.524
294.728
294.999
295.379
295.878
296.464
297.093
297.754
298.396
299.018
299.631
300.243
300.845
301.445
302.084
302.944
304.373
306.492
288.782
289.886
290.693
291.21
291.582
291.904
292.206
292.492
292.762
293.014
293.247
293.462
293.661
293.845
294.018
294.184
294.347
294.513
294.687
294.876
295.098
295.391
295.78
296.275
296.863
297.519
298.216
298.932
299.65
300.354
301.029
301.717
302.602
304.068
306.366
288.777
289.883
290.692
291.211
291.587
291.913
292.216
292.505
292.777
293.031
293.267
293.484
293.685
293.871
294.046
294.214
294.378
294.542
294.709
294.882
295.059
295.253
295.492
295.807
296.222
296.747
297.373
298.081
298.846
299.625
300.388
301.155
302.094
303.625
306.18
288.775
289.883
290.697
291.22
291.597
291.925
292.231
292.522
292.797
293.054
293.292
293.512
293.715
293.904
294.082
294.253
294.421
294.59
294.764
294.943
295.12
295.294
295.484
295.715
296.009
296.394
296.896
297.53
298.282
299.119
299.993
300.85
301.832
303.402
306.093
288.777
289.892
290.709
291.233
291.612
291.942
292.251
292.545
292.824
293.084
293.326
293.548
293.754
293.946
294.127
294.302
294.475
294.651
294.836
295.031
295.227
295.421
295.614
295.813
296.044
296.362
296.797
297.38
298.127
299.013
299.94
300.809
301.796
303.391
306.094
288.782
289.906
290.724
291.247
291.627
291.96
292.271
292.568
292.849
293.112
293.357
293.583
293.792
293.987
294.171
294.35
294.528
294.712
294.909
295.123
295.35
295.585
295.826
296.067
296.309
296.572
296.93
297.46
298.202
299.108
300.03
300.876
301.854
303.466
306.14
288.789
289.92
290.739
291.262
291.643
291.977
292.29
292.589
292.873
293.139
293.386
293.615
293.826
294.023
294.21
294.39
294.572
294.761
294.968
295.201
295.461
295.746
296.05
296.364
296.683
297.025
297.438
297.993
298.731
299.589
300.426
301.202
302.143
303.719
306.249
288.794
289.931
290.752
291.274
291.655
291.99
292.305
292.606
292.891
293.159
293.408
293.638
293.852
294.051
294.239
294.421
294.603
294.793
295.002
295.24
295.518
295.839
296.198
296.584
296.992
297.431
297.932
298.538
299.266
300.054
300.803
301.521
302.429
303.959
306.345
288.798
289.939
290.761
291.283
291.665
292.002
292.318
292.62
292.906
293.175
293.425
293.658
293.873
294.074
294.263
294.444
294.624
294.809
295.011
295.243
295.519
295.848
296.23
296.659
297.129
297.642
298.213
298.859
299.575
300.312
301.011
301.701
302.592
304.091
306.395
288.8
289.943
290.768
291.292
291.675
292.012
292.33
292.633
292.92
293.19
293.441
293.675
293.892
294.094
294.285
294.466
294.643
294.823
295.015
295.229
295.484
295.794
296.174
296.62
297.123
297.669
298.272
298.938
299.652
300.371
301.055
301.74
302.626
304.112
306.397
288.8
289.947
290.774
291.3
291.685
292.023
292.342
292.646
292.934
293.204
293.457
293.692
293.911
294.116
294.308
294.491
294.669
294.846
295.03
295.23
295.459
295.734
296.073
296.489
296.983
297.554
298.186
298.872
299.597
300.322
301.013
301.705
302.595
304.081
306.379
288.801
289.951
290.781
291.309
291.695
292.035
292.356
292.661
292.949
293.22
293.473
293.71
293.93
294.138
294.333
294.519
294.7
294.879
295.062
295.256
295.47
295.724
296.036
296.419
296.881
297.427
298.054
298.754
299.502
300.251
300.963
301.667
302.563
304.053
306.367
288.803
289.955
290.788
291.316
291.704
292.046
292.369
292.675
292.965
293.236
293.49
293.727
293.949
294.159
294.357
294.547
294.731
294.913
295.099
295.292
295.506
295.753
296.049
296.415
296.866
297.404
298.031
298.737
299.492
300.246
300.96
301.666
302.564
304.056
306.37
288.804
289.959
290.794
291.324
291.713
292.057
292.381
292.689
292.979
293.251
293.505
293.744
293.967
294.179
294.38
294.572
294.758
294.943
295.131
295.327
295.544
295.795
296.094
296.456
296.897
297.429
298.054
298.761
299.516
300.268
300.978
301.684
302.585
304.079
306.381
288.804
289.963
290.799
291.33
291.721
292.067
292.394
292.702
292.993
293.266
293.52
293.759
293.985
294.198
294.401
294.596
294.786
294.973
295.162
295.358
295.573
295.82
296.116
296.478
296.922
297.456
298.082
298.786
299.535
300.278
300.981
301.683
302.582
304.076
306.379
288.806
289.968
290.806
291.338
291.731
292.079
292.407
292.717
293.009
293.281
293.536
293.776
294.003
294.219
294.426
294.625
294.819
295.01
295.203
295.4
295.613
295.852
296.135
296.483
296.919
297.45
298.075
298.781
299.531
300.274
300.979
301.682
302.58
304.073
306.376
288.808
289.975
290.815
291.348
291.742
292.093
292.423
292.735
293.027
293.299
293.554
293.793
294.022
294.24
294.451
294.656
294.856
295.056
295.258
295.464
295.682
295.922
296.193
296.517
296.926
297.45
298.075
298.781
299.532
300.276
300.98
301.683
302.582
304.076
306.379
288.812
289.986
290.828
291.361
291.757
292.111
292.443
292.757
293.05
293.323
293.577
293.816
294.045
294.266
294.48
294.691
294.9
295.111
295.326
295.551
295.789
296.043
296.323
296.646
297.037
297.522
298.125
298.827
299.579
300.319
301.015
301.714
302.62
304.121
306.401
288.817
289.998
290.841
291.375
291.773
292.128
292.463
292.778
293.073
293.346
293.599
293.839
294.068
294.291
294.509
294.724
294.94
295.161
295.391
295.637
295.899
296.179
296.484
296.827
297.229
297.716
298.306
298.988
299.715
300.427
301.099
301.787
302.689
304.18
306.427
288.822
290.009
290.853
291.388
291.787
292.144
292.481
292.798
293.093
293.365
293.617
293.855
294.083
294.306
294.526
294.744
294.965
295.193
295.435
295.698
295.983
296.292
296.627
296.997
297.421
297.919
298.505
299.169
299.863
300.536
301.183
301.86
302.759
304.243
306.453
288.826
290.018
290.866
291.402
291.803
292.162
292.5
292.818
293.113
293.384
293.634
293.869
294.094
294.314
294.533
294.753
294.975
295.206
295.456
295.732
296.038
296.374
296.74
297.143
297.591
298.101
298.68
299.316
299.972
300.614
301.244
301.915
302.815
304.291
306.472
288.829
290.024
290.876
291.415
291.817
292.178
292.518
292.838
293.132
293.401
293.647
293.878
294.098
294.312
294.527
294.743
294.963
295.192
295.444
295.725
296.042
296.397
296.789
297.219
297.691
298.208
298.779
299.394
300.028
300.655
301.275
301.936
302.825
304.29
306.47
288.83
290.028
290.886
291.429
291.834
292.197
292.54
292.86
293.154
293.42
293.663
293.888
294.102
294.311
294.516
294.723
294.933
295.153
295.393
295.665
295.981
296.346
296.757
297.209
297.694
298.222
298.795
299.405
300.033
300.656
301.274
301.934
302.821
304.284
306.463
288.831
290.034
290.899
291.447
291.854
292.22
292.565
292.887
293.181
293.445
293.684
293.904
294.112
294.313
294.512
294.71
294.908
295.113
295.332
295.58
295.869
296.212
296.617
297.082
297.599
298.157
298.75
299.37
300.001
300.622
301.237
301.897
302.783
304.246
306.445
288.831
290.041
290.915
291.469
291.88
292.25
292.599
292.922
293.216
293.478
293.714
293.929
294.132
294.327
294.519
294.71
294.899
295.091
295.293
295.515
295.769
296.071
296.437
296.873
297.378
297.942
298.552
299.187
299.828
300.46
301.09
301.762
302.655
304.134
306.398
288.835
290.056
290.94
291.5
291.916
292.29
292.642
292.968
293.261
293.521
293.754
293.966
294.165
294.357
294.545
294.732
294.916
295.099
295.29
295.497
295.726
295.989
296.306
296.694
297.159
297.699
298.301
298.942
299.603
300.27
300.934
301.624
302.519
304.011
306.342
288.841
290.077
290.972
291.538
291.959
292.339
292.696
293.024
293.317
293.575
293.804
294.013
294.208
294.396
294.583
294.77
294.954
295.138
295.326
295.524
295.737
295.98
296.267
296.615
297.042
297.553
298.141
298.791
299.484
300.185
300.871
301.57
302.469
303.968
306.325
288.85
290.106
291.011
291.584
292.011
292.398
292.76
293.091
293.384
293.64
293.865
294.07
294.261
294.448
294.633
294.822
295.01
295.2
295.397
295.601
295.813
296.04
296.299
296.617
297.025
297.522
298.109
298.77
299.475
300.182
300.869
301.569
302.469
303.971
306.328
288.863
290.141
291.056
291.636
292.07
292.464
292.833
293.168
293.461
293.714
293.934
294.133
294.321
294.504
294.69
294.881
295.077
295.279
295.491
295.713
295.942
296.184
296.448
296.756
297.13
297.603
298.183
298.852
299.566
300.274
300.95
301.639
302.538
304.043
306.361
288.878
290.178
291.104
291.69
292.131
292.535
292.913
293.253
293.547
293.796
294.01
294.202
294.383
294.563
294.746
294.938
295.142
295.358
295.59
295.836
296.093
296.365
296.66
296.995
297.393
297.879
298.462
299.122
299.812
300.481
301.124
301.794
302.684
304.165
306.414
288.891
290.21
291.146
291.738
292.188
292.601
292.989
293.337
293.633
293.879
294.086
294.271
294.444
294.616
294.794
294.984
295.19
295.417
295.667
295.938
296.227
296.535
296.871
297.246
297.679
298.186
298.767
299.401
300.044
300.667
301.278
301.935
302.823
304.288
306.466
288.902
290.235
291.18
291.779
292.236
292.659
293.058
293.415
293.715
293.96
294.162
294.338
294.503
294.666
294.835
295.016
295.22
295.45
295.71
295.999
296.315
296.658
297.032
297.444
297.904
298.419
298.986
299.583
300.185
300.776
301.369
302.018
302.903
304.358
306.496
288.908
290.249
291.202
291.808
292.27
292.702
293.113
293.48
293.786
294.032
294.231
294.401
294.555
294.707
294.864
295.032
295.224
295.447
295.705
296
296.329
296.693
297.091
297.527
298.003
298.522
299.077
299.654
300.237
300.815
301.399
302.042
302.921
304.368
306.496
288.909
290.254
291.215
291.827
292.294
292.733
293.153
293.531
293.847
294.098
294.298
294.462
294.607
294.746
294.886
295.036
295.206
295.405
295.643
295.927
296.258
296.634
297.05
297.506
297.998
298.523
299.079
299.655
300.237
300.814
301.398
302.04
302.918
304.36
306.489
288.909
290.255
291.226
291.843
292.315
292.759
293.187
293.574
293.9
294.161
294.365
294.528
294.668
294.796
294.922
295.054
295.202
295.374
295.579
295.829
296.128
296.481
296.887
297.346
297.852
298.401
298.978
299.568
300.157
300.738
301.328
301.979
302.865
304.316
306.469
288.91
290.262
291.242
291.866
292.342
292.791
293.225
293.619
293.955
294.225
294.436
294.603
294.742
294.866
294.983
295.102
295.23
295.379
295.559
295.774
296.032
296.343
296.712
297.141
297.629
298.169
298.748
299.345
299.942
300.536
301.144
301.813
302.718
304.204
306.426
288.913
290.277
291.269
291.9
292.381
292.835
293.274
293.674
294.015
294.293
294.511
294.684
294.825
294.948
295.061
295.171
295.288
295.42
295.576
295.767
295.996
296.267
296.591
296.978
297.43
297.943
298.505
299.099
299.706
300.323
300.951
301.631
302.541
304.051
306.362
288.921
290.304
291.312
291.951
292.439
292.901
293.346
293.748
294.092
294.373
294.596
294.774
294.92
295.043
295.155
295.264
295.376
295.499
295.64
295.805