/*--------------------------------*- C++ -*----------------------------------*\
| =========                 |                                                 |
| \\      /  F ield         | OpenFOAM: The Open Source CFD Toolbox           |
|  \\    /   O peration     | Version:  2.3.x                                 |
|   \\  /    A nd           | Web:      www.OpenFOAM.org                      |
|    \\/     M anipulation  |                                                 |
\*---------------------------------------------------------------------------*/
FoamFile
{
    version     2.0;
    format      ascii;
    class       volVectorField;
    location    "950";
    object      U;
}
// * * * * * * * * * * * * * * * * * * * * * * * * * * * * * * * * * * * * * //

dimensions      [0 1 -1 0 0 0 0];

internalField   nonuniform List<vector> 
78750
(
(-0.00313454 0.0212778 0.0331249)
(-0.0118144 0.0163316 0.0530271)
(-0.0222435 3.14341e-05 0.0531074)
(-0.0299971 -0.0121479 0.0502634)
(-0.0344374 -0.0230029 0.048923)
(-0.0351172 -0.0334044 0.0480311)
(-0.034224 -0.0436468 0.0472944)
(-0.0283435 -0.0529811 0.0455995)
(-0.0210332 -0.0589707 0.0444712)
(-0.0121694 -0.0623837 0.0437089)
(-0.00263753 -0.0639116 0.0431754)
(0.00722306 -0.0641298 0.0427889)
(0.0169755 -0.0635358 0.0425612)
(0.0265558 -0.0623052 0.0423285)
(0.0356158 -0.0602101 0.0421989)
(0.0445295 -0.0600555 0.0409678)
(0.0527292 -0.0603914 0.0390875)
(0.060183 -0.0587392 0.0378102)
(0.0666844 -0.0558166 0.0371544)
(0.0723482 -0.0520715 0.0364447)
(0.0766784 -0.0485049 0.0367945)
(0.0808452 -0.0409518 0.0374147)
(0.0824835 -0.037079 0.03777)
(0.0841096 -0.0323384 0.0381069)
(0.0842468 -0.0278118 0.0384372)
(0.0831787 -0.0227414 0.0388552)
(0.0809347 -0.01757 0.0393378)
(0.0773667 -0.0122851 0.0401099)
(0.0719571 -0.00612506 0.0409593)
(0.0655217 0.000304964 0.0420162)
(0.0573175 0.00852337 0.0429235)
(0.0475701 0.015079 0.0449432)
(0.0356205 0.0211343 0.0482278)
(0.0210228 0.0295967 0.0512103)
(0.00700235 0.0337166 0.0360205)
(0.000747481 0.0277113 0.0215905)
(0.00263249 0.0452787 0.0400123)
(0.00331112 0.0422693 0.0439308)
(0.00418044 0.0253571 0.0432373)
(0.00887299 -0.0106438 0.0388003)
(0.011719 -0.0353582 0.0357197)
(0.0192924 -0.0663757 0.0315894)
(0.0250788 -0.0941139 0.0273217)
(0.03035 -0.110584 0.024428)
(0.0356097 -0.119951 0.0223986)
(0.040397 -0.124296 0.0209145)
(0.0456764 -0.124837 0.0195125)
(0.0497493 -0.123404 0.018777)
(0.0536027 -0.121164 0.018215)
(0.0577284 -0.11705 0.017358)
(0.0606551 -0.11025 0.0173259)
(0.0628575 -0.101209 0.0179909)
(0.0651986 -0.0910477 0.0190133)
(0.0664267 -0.0811006 0.0198473)
(0.0674357 -0.0711876 0.0206586)
(0.0677428 -0.062361 0.0203404)
(0.0677774 -0.0533307 0.0201117)
(0.0674007 -0.0438491 0.0200225)
(0.0663779 -0.0340332 0.0201095)
(0.0647618 -0.0238222 0.0204557)
(0.0623912 -0.013385 0.021037)
(0.0598195 -0.00307998 0.0212898)
(0.0551845 0.0132477 0.0229364)
(0.0509429 0.0236623 0.0244284)
(0.0460971 0.0330619 0.0260482)
(0.038718 0.0475176 0.0280528)
(0.031727 0.0643559 0.0309985)
(0.022489 0.0834447 0.035316)
(0.0115896 0.101221 0.0369984)
(0.00314486 0.0920285 0.0268216)
(-0.000304527 -0.00636489 0.0147917)
(0.00246458 -0.0204299 0.0275552)
(0.0080324 -0.0458211 0.0297694)
(0.0160481 -0.0796448 0.0272954)
(0.0242682 -0.111665 0.0238237)
(0.031955 -0.138182 0.0206083)
(0.0380209 -0.153045 0.0186863)
(0.0417071 -0.156322 0.0181578)
(0.0448439 -0.156257 0.0177764)
(0.046307 -0.155076 0.0176015)
(0.0477619 -0.151757 0.01734)
(0.0485694 -0.147132 0.0170545)
(0.0491458 -0.141369 0.016687)
(0.0495354 -0.134698 0.016219)
(0.0495597 -0.126955 0.0156546)
(0.0495189 -0.118145 0.0151687)
(0.0494914 -0.109187 0.0146278)
(0.048904 -0.101017 0.0134233)
(0.0487972 -0.0922563 0.0121022)
(0.0484077 -0.0827563 0.0107834)
(0.0477798 -0.0724866 0.0096203)
(0.0468376 -0.0615936 0.00865202)
(0.0455671 -0.0502425 0.00794463)
(0.0439723 -0.0385346 0.00759113)
(0.0420253 -0.0267352 0.00757085)
(0.0398854 -0.0144264 0.00782098)
(0.0365425 0.00313778 0.00950581)
(0.0343649 0.0132721 0.0106801)
(0.0311204 0.0275039 0.0118257)
(0.0273014 0.0443236 0.0136428)
(0.0237808 0.0613266 0.017775)
(0.0186261 0.0823192 0.0219676)
(0.0121954 0.107658 0.0274224)
(0.0057798 0.123333 0.0297931)
(0.00156308 0.106562 0.0208966)
(-0.000135089 -0.010903 0.00913247)
(0.00234634 -0.0509338 0.0138834)
(0.00721633 -0.0938453 0.0130878)
(0.012528 -0.12795 0.0117407)
(0.0168427 -0.148751 0.0112453)
(0.0197039 -0.158191 0.01137)
(0.0214717 -0.161747 0.0115676)
(0.0228109 -0.163243 0.0115177)
(0.0241483 -0.163417 0.0112397)
(0.0252315 -0.162231 0.010953)
(0.0263354 -0.159067 0.0105109)
(0.0272533 -0.15448 0.00995992)
(0.0281091 -0.148684 0.00932223)
(0.0287938 -0.141922 0.00866054)
(0.0289507 -0.134152 0.00802874)
(0.0296278 -0.125251 0.00677005)
(0.0298233 -0.115413 0.00533173)
(0.0299217 -0.104509 0.00383731)
(0.0297088 -0.0927469 0.00225867)
(0.0292186 -0.0802805 0.000586837)
(0.028469 -0.0673092 -0.00114595)
(0.0275086 -0.0540514 -0.00282985)
(0.0263861 -0.0407506 -0.00430058)
(0.0251737 -0.0274624 -0.00540153)
(0.0239374 -0.0132281 -0.00592789)
(0.0222573 0.0034388 -0.00535388)
(0.0211093 0.0137666 -0.00450176)
(0.0196557 0.0277102 -0.00259823)
(0.0180718 0.0415075 0.000421819)
(0.0160098 0.0566381 0.00440069)
(0.0138088 0.0752767 0.0104838)
(0.0103515 0.100328 0.017854)
(0.00631071 0.126393 0.02356)
(0.0022777 0.138059 0.0237895)
(9.70723e-05 0.10913 0.0138115)
(0.000306511 -0.0261282 0.00583167)
(0.00323055 -0.0832992 0.00964754)
(0.0066106 -0.127892 0.0108862)
(0.00934991 -0.155165 0.0116075)
(0.0112105 -0.169732 0.0119793)
(0.0126099 -0.177593 0.0120855)
(0.0138298 -0.181577 0.0120487)
(0.0150512 -0.182482 0.0119577)
(0.0160106 -0.180836 0.011865)
(0.0168917 -0.176745 0.0117182)
(0.0175454 -0.171204 0.0115746)
(0.0181192 -0.164229 0.0114027)
(0.0184717 -0.155826 0.011127)
(0.0187243 -0.146177 0.0106408)
(0.0188543 -0.135989 0.009912)
(0.0183883 -0.125524 0.00934535)
(0.0181883 -0.114193 0.00844483)
(0.0176799 -0.102059 0.00714924)
(0.0170747 -0.0892364 0.0054196)
(0.0163792 -0.0759305 0.0032512)
(0.0155932 -0.0624374 0.000694983)
(0.0147866 -0.0491309 -0.00211395)
(0.013918 -0.0362369 -0.00487093)
(0.0130313 -0.0237092 -0.00729736)
(0.0121328 -0.0109187 -0.0091713)
(0.0116256 0.00238518 -0.0102711)
(0.0113806 0.0124838 -0.010471)
(0.0109546 0.0256551 -0.00956098)
(0.0107157 0.0404556 -0.00677958)
(0.0100236 0.0572769 -0.00260269)
(0.00869288 0.0781153 0.00325684)
(0.00664229 0.104894 0.0116323)
(0.00391661 0.130963 0.0177933)
(0.00126076 0.14047 0.0181776)
(-5.35234e-05 0.106061 0.0106827)
(0.000327395 -0.0386527 0.0045379)
(0.0018754 -0.103589 0.00726595)
(0.00317973 -0.145795 0.00747374)
(0.00414852 -0.16907 0.00723663)
(0.00484895 -0.180463 0.00720346)
(0.00538507 -0.185466 0.00738264)
(0.00583449 -0.186871 0.00769351)
(0.00619417 -0.185907 0.00803628)
(0.00655721 -0.182998 0.00842966)
(0.00693981 -0.178653 0.00883588)
(0.00732658 -0.172973 0.00921775)
(0.00773244 -0.165852 0.00953925)
(0.00818358 -0.157283 0.00979336)
(0.00841742 -0.147418 0.0099709)
(0.00920047 -0.136425 0.00995514)
(0.00933317 -0.12483 0.00957788)
(0.00950994 -0.112601 0.0088259)
(0.00955124 -0.0996487 0.00768262)
(0.00947971 -0.0860208 0.00614672)
(0.00936305 -0.0719103 0.00426565)
(0.00916336 -0.0575847 0.00211806)
(0.00887473 -0.0433009 -0.000347824)
(0.00862101 -0.0293164 -0.00312035)
(0.00831724 -0.0156977 -0.00589305)
(0.00803589 -0.00312769 -0.00833497)
(0.00796759 0.00620432 -0.00971433)
(0.00799371 0.0165253 -0.0104504)
(0.00791337 0.0279196 -0.0102848)
(0.00775547 0.041419 -0.0088504)
(0.00750427 0.0585247 -0.00572268)
(0.0065976 0.0816072 -0.00073761)
(0.00503179 0.110593 0.00715617)
(0.00287683 0.135962 0.0130281)
(0.000841172 0.143223 0.0137024)
(-0.000141908 0.102159 0.00728917)
(0.000128604 -0.0441781 0.003521)
(0.00061097 -0.110379 0.00576137)
(0.000920638 -0.151081 0.00631895)
(0.00111974 -0.173033 0.00671907)
(0.00122626 -0.184043 0.00715249)
(0.00131615 -0.18946 0.00757397)
(0.00143063 -0.191618 0.00797526)
(0.00158375 -0.19137 0.00836433)
(0.00177538 -0.189063 0.00878069)
(0.00197619 -0.184849 0.00924978)
(0.0022056 -0.178854 0.00978921)
(0.0024153 -0.171472 0.0104211)
(0.00262303 -0.162861 0.0111094)
(0.00289701 -0.15287 0.0117497)
(0.00317743 -0.141492 0.0122684)
(0.00353544 -0.128915 0.0125421)
(0.00390487 -0.115474 0.0124092)
(0.00429115 -0.101434 0.0117264)
(0.00468313 -0.0870203 0.0104068)
(0.00504099 -0.0724317 0.00844505)
(0.00545291 -0.0578717 0.00593123)
(0.00584037 -0.0435947 0.00320239)
(0.00615028 -0.0298474 0.000487997)
(0.00641767 -0.0168403 -0.00216968)
(0.00660592 -0.0049375 -0.00468887)
(0.0067194 0.00450491 -0.00649877)
(0.00679153 0.015028 -0.00793)
(0.00678333 0.0269718 -0.00865453)
(0.00671003 0.0410238 -0.00832123)
(0.00640143 0.0588823 -0.00641383)
(0.00576056 0.0833696 -0.00203541)
(0.00446225 0.113806 0.00450715)
(0.00273101 0.138667 0.00948878)
(0.00102087 0.144578 0.0102327)
(2.00331e-05 0.100393 0.00498961)
(4.14181e-05 -0.0471721 0.00283437)
(0.000173834 -0.114815 0.00414559)
(0.000288977 -0.155658 0.00378821)
(0.000434142 -0.177435 0.00344226)
(0.000537638 -0.188016 0.00341408)
(0.000609172 -0.192821 0.00357274)
(0.000677153 -0.194258 0.00383417)
(0.000759796 -0.193268 0.00417139)
(0.000872561 -0.19029 0.0045989)
(0.00102905 -0.185647 0.00514359)
(0.00124401 -0.179568 0.00583811)
(0.00152411 -0.172184 0.0067054)
(0.0018525 -0.16364 0.00775682)
(0.00222026 -0.154101 0.00899102)
(0.00264073 -0.143647 0.0103689)
(0.003121 -0.132264 0.01181)
(0.00366126 -0.11992 0.013178)
(0.00424953 -0.106633 0.0142671)
(0.00487115 -0.0925113 0.0148211)
(0.00550535 -0.0777323 0.0145817)
(0.00612453 -0.0625086 0.0133511)
(0.00671436 -0.0471007 0.0110599)
(0.00723635 -0.0317801 0.00782779)
(0.00763567 -0.0167929 0.0039116)
(0.00779621 -0.00291228 -0.000100085)
(0.00771532 0.00713315 -0.00284416)
(0.00752093 0.0179134 -0.00523567)
(0.00728712 0.02931 -0.00686373)
(0.00694615 0.0429754 -0.0074307)
(0.00645796 0.0615434 -0.00632929)
(0.0056945 0.0871874 -0.00287347)
(0.00443007 0.118547 0.00261089)
(0.00283201 0.142952 0.00687396)
(0.00123115 0.147754 0.00769641)
(0.000101126 0.100714 0.00423339)
(-5.76829e-05 -0.0477858 0.00200085)
(-7.76084e-05 -0.115407 0.00239504)
(2.22474e-05 -0.156215 0.0018339)
(0.000221861 -0.178086 0.00153341)
(0.000441233 -0.188952 0.00153173)
(0.000669184 -0.194226 0.00166095)
(0.000926587 -0.196303 0.00183856)
(0.00123 -0.196083 0.00203339)
(0.00160117 -0.193954 0.00225273)
(0.00203855 -0.190133 0.00251551)
(0.00253978 -0.18476 0.0028463)
(0.00309442 -0.177955 0.00328064)
(0.00369404 -0.169812 0.00386534)
(0.00432549 -0.160433 0.00465377)
(0.0049665 -0.149936 0.00570178)
(0.00559342 -0.138452 0.00704636)
(0.00619246 -0.126091 0.00868554)
(0.00675707 -0.112923 0.0105587)
(0.00728513 -0.0989923 0.0125141)
(0.00777847 -0.0843724 0.0142884)
(0.00823496 -0.0691638 0.0155261)
(0.00865015 -0.0534762 0.0158432)
(0.00900747 -0.0373586 0.0149153)
(0.00929103 -0.02086 0.0125045)
(0.00943739 -0.00498999 0.00882306)
(0.0092325 0.00845306 0.00485467)
(0.00888962 0.0189354 0.00184855)
(0.0084475 0.0320849 -0.00117173)
(0.00783024 0.0468237 -0.00327297)
(0.00704287 0.0657653 -0.00389433)
(0.00608417 0.0920118 -0.00223838)
(0.00474665 0.123958 0.00159418)
(0.00313962 0.148093 0.00491231)
(0.00152068 0.152123 0.00579148)
(0.00022531 0.102939 0.00337756)
(1.83432e-05 -0.0485963 0.00127419)
(0.000384151 -0.117534 0.00117952)
(0.000960214 -0.15938 0.000466787)
(0.00160846 -0.181955 -2.4453e-05)
(0.00222309 -0.193238 -0.000247927)
(0.00279167 -0.19874 -0.000332544)
(0.00333347 -0.200938 -0.000348919)
(0.00383664 -0.20075 -0.000332367)
(0.00433867 -0.198568 -0.000282499)
(0.00482336 -0.194635 -0.000180222)
(0.0053053 -0.189134 -2.01051e-05)
(0.0057824 -0.182225 0.000201969)
(0.00625537 -0.174044 0.000494059)
(0.00674168 -0.164711 0.000877185)
(0.00723151 -0.154271 0.00142889)
(0.00770849 -0.142807 0.00219762)
(0.00816451 -0.130431 0.00322608)
(0.00859575 -0.11725 0.00455505)
(0.00899688 -0.103339 0.00620312)
(0.00936201 -0.0887634 0.0081267)
(0.00967858 -0.0735709 0.0101702)
(0.00993082 -0.0577763 0.0120522)
(0.0101097 -0.0412952 0.0133849)
(0.0101866 -0.0240983 0.0136707)
(0.0101056 -0.0068294 0.0125285)
(0.00985498 0.0094749 0.00991098)
(0.00955073 0.0210542 0.00734593)
(0.00900442 0.0351973 0.00409607)
(0.00824608 0.0511868 0.00111817)
(0.00726561 0.0711013 -0.000740862)
(0.0060946 0.0980365 -0.000548079)
(0.00461494 0.130592 0.00182346)
(0.00298285 0.154806 0.00425716)
(0.00138534 0.158187 0.00503594)
(0.000137507 0.106046 0.00301322)
(4.42703e-07 -0.050889 0.0007171)
(0.00041591 -0.121844 8.61357e-05)
(0.00111757 -0.163905 -0.000885267)
(0.00187864 -0.186065 -0.00150243)
(0.00258377 -0.197032 -0.00178378)
(0.00321801 -0.202395 -0.00189239)
(0.003801 -0.204536 -0.00191879)
(0.00432027 -0.204326 -0.00190794)
(0.00482323 -0.202131 -0.00186804)
(0.00529105 -0.198193 -0.00177797)
(0.0057435 -0.192649 -0.00163378)
(0.00617748 -0.185634 -0.00143761)
(0.0065781 -0.177336 -0.00121409)
(0.00696025 -0.167947 -0.0010103)
(0.00721478 -0.157202 -0.000464704)
(0.00743799 -0.145431 0.000287646)
(0.00764091 -0.132874 0.00118475)
(0.00782683 -0.119627 0.00224615)
(0.00801826 -0.105751 0.00346461)
(0.0082202 -0.0912487 0.00487099)
(0.00843455 -0.0760862 0.00648761)
(0.00865406 -0.0602194 0.00827339)
(0.00885669 -0.0436179 0.00998067)
(0.00902459 -0.0257667 0.0113866)
(0.00913702 -0.00688594 0.0120609)
(0.00906554 0.00778238 0.0116372)
(0.00881286 0.0214868 0.0103136)
(0.00833049 0.038252 0.00769222)
(0.00763826 0.0564716 0.00453474)
(0.00671779 0.0780795 0.00185248)
(0.00560058 0.105984 0.000827205)
(0.00421296 0.138578 0.00194257)
(0.00272165 0.161874 0.00359537)
(0.00125501 0.164012 0.00421038)
(0.000109136 0.108208 0.00253767)
(3.14716e-05 -0.0521007 0.000222924)
(0.000571523 -0.124482 -0.000732042)
(0.00147586 -0.167414 -0.00181156)
(0.00246624 -0.18984 -0.00262493)
(0.00338834 -0.200775 -0.0031733)
(0.00421796 -0.206047 -0.00356156)
(0.00497837 -0.208109 -0.00386358)
(0.00563702 -0.207847 -0.0041015)
(0.00626067 -0.205576 -0.0043119)
(0.00680568 -0.201528 -0.00444383)
(0.00729185 -0.195842 -0.00448086)
(0.00770938 -0.188671 -0.00442639)
(0.00804413 -0.179942 -0.00413019)
(0.00818525 -0.169477 -0.00327776)
(0.00829426 -0.158183 -0.0023604)
(0.00834901 -0.146244 -0.00141598)
(0.00836377 -0.133719 -0.000368588)
(0.00840826 -0.120722 0.000638927)
(0.00843782 -0.107208 0.0017946)
(0.00847956 -0.0932145 0.00302967)
(0.00853792 -0.0787093 0.00436483)
(0.00861902 -0.0635605 0.00585794)
(0.00872029 -0.0474385 0.00755618)
(0.00883999 -0.0303052 0.0092093)
(0.00901628 -0.0120483 0.0106335)
(0.00896875 0.00684368 0.0113561)
(0.00866017 0.0211703 0.0111066)
(0.00821777 0.0388778 0.00971689)
(0.00760377 0.0585967 0.00731416)
(0.00673582 0.0819202 0.00462308)
(0.00562271 0.111287 0.00287253)
(0.00419243 0.144868 0.0029442)
(0.00267905 0.168364 0.00386026)
(0.00120446 0.169772 0.0041582)
(9.1141e-05 0.110715 0.0024558)
(2.37116e-05 -0.0544934 -0.000230444)
(0.00067778 -0.129673 -0.00139596)
(0.00179466 -0.173438 -0.00240914)
(0.00299383 -0.195491 -0.00320955)
(0.00410789 -0.205824 -0.0038457)
(0.00511126 -0.210566 -0.00438174)
(0.00602728 -0.212157 -0.00486655)
(0.00679542 -0.211496 -0.0052787)
(0.00749655 -0.208786 -0.00568729)
(0.00805836 -0.20426 -0.00602996)
(0.00849904 -0.197983 -0.00625791)
(0.00886574 -0.189896 -0.00625275)
(0.00894809 -0.180055 -0.00557044)
(0.00903843 -0.169392 -0.00491384)
(0.00905918 -0.158081 -0.00420199)
(0.00903941 -0.146152 -0.00332552)
(0.00900705 -0.133679 -0.00232693)
(0.00893326 -0.120675 -0.00114574)
(0.00885722 -0.107202 5.83897e-05)
(0.00877133 -0.0932634 0.00130002)
(0.00868396 -0.0788551 0.00252871)
(0.00859841 -0.0639205 0.00371117)
(0.00851991 -0.0482402 0.0050575)
(0.00846398 -0.0314736 0.00671275)
(0.00842995 -0.0133597 0.00847493)
(0.0083354 0.00580906 0.00986114)
(0.00818046 0.0209565 0.0103523)
(0.00783266 0.0399943 0.00982743)
(0.00727125 0.0616648 0.00812796)
(0.00639027 0.0873848 0.00565061)
(0.00517246 0.118937 0.00353808)
(0.00359092 0.153482 0.00293214)
(0.00209836 0.176072 0.00333306)
(0.000817652 0.175859 0.00342468)
(-6.40979e-05 0.112474 0.00194501)
(3.48688e-05 -0.0563018 -0.000514598)
(0.000808054 -0.133945 -0.00157295)
(0.00208895 -0.178906 -0.00239182)
(0.00345084 -0.201051 -0.00316283)
(0.00472579 -0.211027 -0.00386957)
(0.00589051 -0.215279 -0.00452243)
(0.00697053 -0.216289 -0.00515879)
(0.00787377 -0.215033 -0.00573475)
(0.00870013 -0.211574 -0.0063758)
(0.00931861 -0.206212 -0.00703023)
(0.0098738 -0.199058 -0.00767568)
(0.0100149 -0.189883 -0.00782042)
(0.0102403 -0.179796 -0.00822287)
(0.0102649 -0.168825 -0.00832963)
(0.01022 -0.157208 -0.00811306)
(0.0101009 -0.145104 -0.00752257)
(0.00992724 -0.132566 -0.00654985)
(0.00971398 -0.119639 -0.00524126)
(0.00947332 -0.106351 -0.00367955)
(0.00922264 -0.092698 -0.00195125)
(0.00898239 -0.0785886 -0.000124671)
(0.00875791 -0.0639259 0.0017525)
(0.0085555 -0.048611 0.00355411)
(0.00836692 -0.0323554 0.0052891)
(0.00817744 -0.0147154 0.0070417)
(0.00793479 0.00432092 0.00865039)
(0.00766932 0.0200712 0.00952469)
(0.00723898 0.0404531 0.00981409)
(0.00662249 0.0641816 0.00893238)
(0.00574708 0.0924048 0.00691343)
(0.00461278 0.126081 0.00462484)
(0.00321824 0.161056 0.00335981)
(0.00193974 0.182163 0.00316415)
(0.000838317 0.180326 0.00295868)
(7.08066e-06 0.11342 0.0015877)
(5.95388e-05 -0.0591399 -0.000796602)
(0.0010617 -0.140431 -0.00166831)
(0.00259732 -0.186535 -0.00223935)
(0.00415909 -0.208288 -0.00296647)
(0.00559893 -0.217588 -0.0037542)
(0.00692352 -0.221172 -0.00454858)
(0.00815981 -0.221468 -0.00535844)
(0.00919367 -0.21949 -0.00613939)
(0.0101048 -0.215137 -0.00705645)
(0.0108244 -0.208652 -0.00804511)
(0.011177 -0.19966 -0.0088432)
(0.011525 -0.189606 -0.00997603)
(0.0115861 -0.178407 -0.0109983)
(0.0115298 -0.166474 -0.0117578)
(0.0113578 -0.154137 -0.0120971)
(0.0111031 -0.141583 -0.0119601)
(0.0107981 -0.128836 -0.0113384)
(0.010457 -0.11587 -0.0102587)
(0.0100834 -0.102717 -0.00878946)
(0.00969159 -0.0894377 -0.00702943)
(0.00930872 -0.0759558 -0.00507356)
(0.00896288 -0.0620401 -0.00299504)
(0.00866654 -0.0473563 -0.000832727)
(0.00840933 -0.0314429 0.00139968)
(0.00815996 -0.0138826 0.00371394)
(0.0078663 0.00511276 0.00596459)
(0.00755212 0.0210579 0.00739675)
(0.00707092 0.0420805 0.00848241)
(0.00644591 0.0669414 0.00858419)
(0.00562194 0.0966364 0.00747738)
(0.00464596 0.131694 0.00560904)
(0.00343816 0.167345 0.00411525)
(0.00218514 0.188122 0.00349223)
(0.00103534 0.185423 0.00299831)
(7.94894e-05 0.115578 0.00154929)
(9.327e-05 -0.0625962 -0.00083179)
(0.00125569 -0.147749 -0.00115861)
(0.0028816 -0.194824 -0.00136379)
(0.00447597 -0.216029 -0.0020472)
(0.00592432 -0.224529 -0.00294536)
(0.00731682 -0.227287 -0.0039258)
(0.00850807 -0.226765 -0.00483723)
(0.00962898 -0.223538 -0.00591085)
(0.0103645 -0.217924 -0.00707803)
(0.010948 -0.209332 -0.00842096)
(0.0112844 -0.199357 -0.0100125)
(0.0113966 -0.187827 -0.0115891)
(0.0113273 -0.1753 -0.0129615)
(0.011118 -0.162346 -0.0139952)
(0.0108292 -0.14935 -0.0146235)
(0.0105101 -0.136465 -0.01481)
(0.0101855 -0.123627 -0.0145375)
(0.00985892 -0.110669 -0.0138011)
(0.00952062 -0.0976162 -0.0126435)
(0.00916425 -0.0845941 -0.0111477)
(0.00879971 -0.0716031 -0.00940004)
(0.0084468 -0.0584098 -0.0074606)
(0.0081284 -0.0446335 -0.00535548)
(0.00786862 -0.02971 -0.00305971)
(0.0076721 -0.0129477 -0.000525362)
(0.007525 0.00555451 0.00209739)
(0.00734072 0.0216962 0.00393788)
(0.00703989 0.0432406 0.00562193)
(0.00651243 0.069165 0.00653765)
(0.00568353 0.100441 0.00634021)
(0.00456263 0.137355 0.00524311)
(0.00307978 0.174472 0.00406272)
(0.00169982 0.195203 0.00338495)
(0.000616799 0.191453 0.00268183)
(-0.000140913 0.117696 0.000879097)
(0.000132803 -0.0669567 -0.000641586)
(0.00132206 -0.156105 -0.000243185)
(0.00281787 -0.203637 -4.61952e-05)
(0.00420347 -0.223925 -0.00063949)
(0.00544695 -0.231481 -0.00156694)
(0.00663011 -0.233293 -0.00262867)
(0.00766354 -0.231708 -0.0036707)
(0.00844817 -0.226919 -0.00491611)
(0.00919307 -0.218891 -0.00659598)
(0.00949806 -0.20913 -0.0083794)
(0.00965919 -0.197267 -0.0102905)
(0.00955863 -0.184023 -0.0121311)
(0.00929418 -0.170259 -0.0137399)
(0.00896094 -0.156645 -0.0149984)
(0.00862699 -0.143461 -0.0158421)
(0.00832597 -0.130669 -0.0162548)
(0.00806726 -0.118052 -0.0162397)
(0.00784455 -0.105339 -0.0157972)
(0.00763734 -0.0924724 -0.0149561)
(0.00742174 -0.0796384 -0.013791)
(0.0071908 -0.0669353 -0.0123769)
(0.00694986 -0.0541619 -0.0107482)
(0.00670959 -0.0409953 -0.00890876)
(0.00649198 -0.0269716 -0.00680848)
(0.00631999 -0.0112124 -0.00432238)
(0.00619375 0.00628039 -0.00150928)
(0.00609345 0.0226561 0.000926194)
(0.00580396 0.0449485 0.00304672)
(0.00533245 0.0726362 0.00436302)
(0.00443799 0.106528 0.00440152)
(0.00309932 0.145841 0.0034391)
(0.00158828 0.183178 0.00237791)
(0.000575096 0.201618 0.00179301)
(-6.42182e-05 0.19551 0.0012498)
(-0.000275107 0.11763 0.000256474)
(0.000126204 -0.0711909 -0.000149746)
(0.00108876 -0.163423 0.00110256)
(0.00218278 -0.210646 0.00173346)
(0.00315394 -0.229706 0.00129678)
(0.00402637 -0.236224 0.00039594)
(0.00485599 -0.237032 -0.000730428)
(0.00560269 -0.234288 -0.00194154)
(0.00608787 -0.228094 -0.00339135)
(0.00656491 -0.21888 -0.00541189)
(0.00673067 -0.206949 -0.00758094)
(0.00670749 -0.193102 -0.00987079)
(0.00650244 -0.178432 -0.0121118)
(0.00622545 -0.163964 -0.0140648)
(0.00594625 -0.150229 -0.0155749)
(0.00570665 -0.137264 -0.016599)
(0.00552116 -0.124829 -0.0171569)
(0.00538688 -0.112595 -0.0172832)
(0.00529369 -0.100241 -0.0170024)
(0.00522192 -0.0876047 -0.0163394)
(0.0051429 -0.0749209 -0.0153784)
(0.00504284 -0.0623979 -0.0142041)
(0.00492316 -0.0498643 -0.0128414)
(0.00478363 -0.0370215 -0.0112843)
(0.00461637 -0.023458 -0.00947701)
(0.00441536 -0.00833117 -0.00726682)
(0.00429812 0.00835122 -0.00460417)
(0.00415349 0.0252168 -0.00208336)
(0.00383992 0.0480976 0.000775875)
(0.00342865 0.0773273 0.0030732)
(0.00283116 0.113227 0.00379304)
(0.00203984 0.153385 0.00287967)
(0.00121758 0.18888 0.00153212)
(0.000639558 0.204643 0.000730188)
(0.000147031 0.196529 0.000146456)
(-8.46234e-05 0.116747 -0.000284027)
(0.00010478 -0.0745248 0.000374081)
(0.000728021 -0.16889 0.00235309)
(0.00134587 -0.215687 0.00335849)
(0.00188707 -0.233813 0.0031244)
(0.00239892 -0.239575 0.00234934)
(0.00292348 -0.239593 0.00129041)
(0.00336287 -0.235755 2.19148e-05)
(0.00379429 -0.228202 -0.00154976)
(0.00398312 -0.217494 -0.00348721)
(0.0041495 -0.203977 -0.00583873)
(0.00413759 -0.188776 -0.00843709)
(0.00406464 -0.173266 -0.0110188)
(0.00396298 -0.158447 -0.0133051)
(0.0038693 -0.144693 -0.015124)
(0.00380302 -0.131898 -0.016427)
(0.00377198 -0.119726 -0.017235)
(0.00377566 -0.10778 -0.0175891)
(0.00380844 -0.0957045 -0.0175238)
(0.00386307 -0.0832642 -0.017062)
(0.00391882 -0.070678 -0.016288)
(0.00396003 -0.0582715 -0.0153119)
(0.00399116 -0.0458845 -0.0141678)
(0.00401609 -0.033164 -0.0128564)
(0.00402977 -0.0196621 -0.0113372)
(0.00404976 -0.00483016 -0.00951797)
(0.0041202 0.0100232 -0.0076461)
(0.00414934 0.0276903 -0.0053631)
(0.00396705 0.0502327 -0.00246655)
(0.00372355 0.078911 0.000670674)
(0.00348588 0.114642 0.00297456)
(0.00315094 0.15526 0.00343599)
(0.00244204 0.191849 0.00257873)
(0.00155 0.208536 0.00175509)
(0.00074992 0.200437 0.00104938)
(5.90147e-05 0.117903 3.31648e-06)
(8.06817e-05 -0.0767108 0.000991009)
(0.000400841 -0.172088 0.00374258)
(0.000629298 -0.218352 0.00520159)
(0.000819605 -0.235859 0.00524989)
(0.00103405 -0.241212 0.0046674)
(0.0012794 -0.240842 0.00378972)
(0.00147639 -0.236359 0.00255116)
(0.00188056 -0.228067 0.000692633)
(0.00193927 -0.216531 -0.000921191)
(0.00218708 -0.202057 -0.00336289)
(0.00242253 -0.186015 -0.00630699)
(0.00258852 -0.169853 -0.00915935)
(0.00273463 -0.154543 -0.0117733)
(0.00284159 -0.140492 -0.0139272)
(0.00293 -0.127586 -0.0155494)
(0.00301843 -0.11544 -0.0166501)
(0.00312032 -0.10362 -0.017271)
(0.00324174 -0.0917478 -0.0174542)
(0.0033869 -0.0795617 -0.0172289)
(0.00354564 -0.0671708 -0.0166592)
(0.00369999 -0.0549949 -0.0158678)
(0.00385661 -0.0429336 -0.014896)
(0.00402926 -0.0307026 -0.0137687)
(0.0042499 -0.0178875 -0.0124931)
(0.00455007 -0.00379284 -0.0110276)
(0.00487223 0.010561 -0.00961026)
(0.0051179 0.0286476 -0.00792833)
(0.0051212 0.051476 -0.00585522)
(0.00477392 0.0806283 -0.00328129)
(0.00402259 0.117434 -0.000523765)
(0.00304787 0.160336 0.00136484)
(0.00175501 0.199078 0.00164262)
(0.000716678 0.215585 0.00103984)
(7.94708e-05 0.206083 -2.30314e-07)
(-0.000222564 0.119718 -0.000786837)
(4.86948e-05 -0.0781792 0.00144263)
(0.000197726 -0.174367 0.00467393)
(0.000225862 -0.220315 0.00651587)
(0.000227909 -0.237353 0.00690718)
(0.000255601 -0.242418 0.00657292)
(0.000326975 -0.241791 0.00580681)
(0.000447861 -0.236982 0.00462836)
(0.000564896 -0.228436 0.00302896)
(0.000859416 -0.216481 0.000795519)
(0.00110419 -0.201915 -0.00146234)
(0.00134777 -0.185539 -0.00382491)
(0.0016956 -0.168574 -0.00661783)
(0.00200537 -0.15233 -0.00949463)
(0.00220718 -0.137461 -0.0119661)
(0.00235469 -0.124028 -0.0139348)
(0.00246574 -0.11164 -0.0153612)
(0.00256756 -0.0997846 -0.0162823)
(0.00267781 -0.0880172 -0.0167479)
(0.0028042 -0.0760286 -0.0167968)
(0.00294295 -0.06379 -0.016474)
(0.00306978 -0.0517868 -0.0159087)
(0.00318576 -0.0399882 -0.0151369)
(0.00329249 -0.0282125 -0.014181)
(0.00340495 -0.0161221 -0.0130476)
(0.00354932 -0.00281064 -0.0116705)
(0.00369552 0.0117212 -0.0101866)
(0.00380525 0.0309498 -0.0084105)
(0.00375416 0.0559383 -0.00653002)
(0.00330535 0.0881229 -0.00474422)
(0.00224065 0.127754 -0.00313987)
(0.000663113 0.171287 -0.00187633)
(-0.000394653 0.206904 -0.00139794)
(-0.000687052 0.219397 -0.0014705)
(-0.000666208 0.206758 -0.00158559)
(-0.000483983 0.118343 -0.00139918)
(1.67113e-05 -0.0792821 0.00182439)
(5.61301e-05 -0.176196 0.00542908)
(-3.84024e-05 -0.221874 0.00752429)
(-0.000143037 -0.238465 0.00812736)
(-0.000222912 -0.243224 0.00795658)
(-0.000254855 -0.2424 0.0073018)
(-0.000225566 -0.237469 0.0061832)
(-0.000123134 -0.228806 0.00458318)
(5.51901e-05 -0.216803 0.00255636)
(0.000343494 -0.202066 0.000140793)
(0.000704857 -0.185502 -0.00249043)
(0.00110773 -0.168142 -0.00509535)
(0.00143322 -0.150937 -0.00735593)
(0.00175928 -0.13494 -0.00985297)
(0.00197569 -0.12067 -0.0121574)
(0.00209935 -0.107747 -0.0139044)
(0.0021873 -0.0956482 -0.0151109)
(0.0022642 -0.0838355 -0.0158369)
(0.00234359 -0.0718948 -0.0161369)
(0.00243258 -0.0596785 -0.0160521)
(0.00250319 -0.0476606 -0.0157166)
(0.00254521 -0.0358254 -0.015171)
(0.00254274 -0.0239851 -0.0144259)
(0.00247146 -0.0118546 -0.0134635)
(0.00232449 0.00137392 -0.012164)
(0.0021098 0.0160076 -0.0105105)
(0.00185117 0.0352313 -0.00827155)
(0.00160515 0.0609329 -0.00565678)
(0.00133321 0.0947657 -0.00330673)
(0.000862582 0.135669 -0.00198711)
(0.000210869 0.177929 -0.00183679)
(-0.000112969 0.209381 -0.0020749)
(-0.000153823 0.219819 -0.00211587)
(-0.000131316 0.206562 -0.00173802)
(-6.32972e-05 0.116771 -0.00113362)
(1.21682e-05 -0.0802092 0.00212575)
(-5.76445e-05 -0.177833 0.00604571)
(-0.000341831 -0.223478 0.00847145)
(-0.000593391 -0.239844 0.00946456)
(-0.000785565 -0.244372 0.00969072)
(-0.000934201 -0.243393 0.00949907)
(-0.00101993 -0.2384 0.00894111)
(-0.00102639 -0.229862 0.00794593)
(-0.0009173 -0.218038 0.00636139)
(-0.000664159 -0.203322 0.00408296)
(-0.000260882 -0.186508 0.00116693)
(0.000227142 -0.16863 -0.0021226)
(0.000787218 -0.150831 -0.00543597)
(0.00127889 -0.133986 -0.00815936)
(0.0016536 -0.118466 -0.010252)
(0.00193984 -0.104617 -0.0123153)
(0.00212871 -0.0920137 -0.0138574)
(0.00228303 -0.0800014 -0.0148866)
(0.00243148 -0.0680389 -0.0154639)
(0.00259531 -0.0558628 -0.0156457)
(0.0027579 -0.0437717 -0.0155572)
(0.00290742 -0.0317995 -0.0152659)
(0.00303038 -0.0197303 -0.0148)
(0.00308446 -0.00722987 -0.014157)
(0.00307443 0.00635318 -0.0132238)
(0.00297959 0.0209094 -0.0119709)
(0.00273613 0.0397209 -0.0100158)
(0.00246127 0.0641619 -0.00727351)
(0.00237799 0.0964548 -0.00408126)
(0.00240952 0.136688 -0.00151561)
(0.00229299 0.178736 -0.000330841)
(0.00190816 0.210547 -0.000247049)
(0.00133292 0.221621 -0.000541559)
(0.000726621 0.208227 -0.00090492)
(0.000267902 0.11823 -0.000589617)
(2.03596e-05 -0.0808144 0.00229035)
(-0.000129697 -0.178592 0.00627755)
(-0.000560531 -0.224175 0.00886422)
(-0.000958724 -0.240546 0.01024)
(-0.00127176 -0.245037 0.0108758)
(-0.00152759 -0.244082 0.011108)
(-0.00170669 -0.23916 0.0109695)
(-0.00179774 -0.230857 0.0104303)
(-0.00177141 -0.219582 0.00942573)
(-0.00158339 -0.205663 0.00782917)
(-0.00119917 -0.189453 0.00550317)
(-0.000623426 -0.171544 0.00243089)
(6.13362e-05 -0.152919 -0.00116657)
(0.000732933 -0.13478 -0.00481236)
(0.00135572 -0.118099 -0.0080194)
(0.00179047 -0.103105 -0.0101831)
(0.00214896 -0.0896436 -0.0121773)
(0.00239115 -0.0772079 -0.0135996)
(0.00261157 -0.0651497 -0.0145086)
(0.00284379 -0.0530571 -0.0149757)
(0.00308971 -0.0410365 -0.0151244)
(0.00334275 -0.0291541 -0.0150558)
(0.00359763 -0.0171406 -0.0148284)
(0.00384761 -0.00432775 -0.0143983)
(0.0040778 0.00879566 -0.0138163)
(0.00423129 0.0242407 -0.0129796)
(0.00418932 0.0434616 -0.0117091)
(0.00392195 0.0677894 -0.00977067)
(0.00333566 0.0990696 -0.00696471)
(0.0029113 0.138463 -0.00366336)
(0.00268888 0.182058 -0.00115159)
(0.00194624 0.216663 -0.000225917)
(0.00114819 0.228547 -0.000286918)
(0.000526925 0.214736 -0.000595217)
(1.25052e-05 0.121682 -0.000706637)
(1.44804e-05 -0.0814206 0.00245678)
(-0.000213014 -0.179171 0.00634602)
(-0.000713762 -0.224427 0.0088092)
(-0.00121133 -0.241026 0.0103418)
(-0.00163622 -0.245833 0.0113364)
(-0.00197302 -0.245063 0.0120474)
(-0.00224067 -0.240388 0.0124468)
(-0.00241448 -0.232418 0.0124766)
(-0.00247435 -0.221591 0.0120288)
(-0.00239045 -0.208284 0.0109872)
(-0.00212299 -0.19285 0.00925789)
(-0.00164586 -0.175606 0.00677199)
(-0.000955299 -0.157011 0.00354247)
(-0.000136277 -0.13796 -0.000215091)
(0.000620986 -0.119647 -0.00404137)
(0.00128844 -0.103017 -0.00744743)