/*--------------------------------*- C++ -*----------------------------------*\
| =========                 |                                                 |
| \\      /  F ield         | OpenFOAM: The Open Source CFD Toolbox           |
|  \\    /   O peration     | Version:  2.0.x                                 |
|   \\  /    A nd           | Web:      www.OpenFOAM.org                      |
|    \\/     M anipulation  |                                                 |
\*---------------------------------------------------------------------------*/
FoamFile
{
    version     2.0;
    format      ascii;
    class       volVectorField;
    location    "950";
    object      U;
}
// * * * * * * * * * * * * * * * * * * * * * * * * * * * * * * * * * * * * * //

dimensions      [0 1 -1 0 0 0 0];

internalField   nonuniform List<vector> 
78750
(
(-0.00209948 0.0135721 0.0150416)
(-0.00761146 0.0147323 0.0250241)
(-0.0132814 0.0053068 0.0283391)
(-0.0164841 -0.00724617 0.0298865)
(-0.0167773 -0.0189686 0.0310168)
(-0.0138912 -0.0291416 0.0316609)
(-0.00886367 -0.0372054 0.0319437)
(-0.00219925 -0.0430628 0.0320674)
(0.00550692 -0.0469691 0.0321878)
(0.013934 -0.0493202 0.0322726)
(0.0225798 -0.0503128 0.0323506)
(0.0314014 -0.0499285 0.0324795)
(0.0399929 -0.0489726 0.0325317)
(0.0485048 -0.0467508 0.0325166)
(0.0563968 -0.0437959 0.0324878)
(0.0637633 -0.0445958 0.0315496)
(0.0703509 -0.0433681 0.0305537)
(0.0760046 -0.0403567 0.0304826)
(0.0808056 -0.0362335 0.0302973)
(0.0844034 -0.0325765 0.0302868)
(0.0875414 -0.0245084 0.0304289)
(0.0885285 -0.0208943 0.0301326)
(0.0893334 -0.0155213 0.0299539)
(0.0886365 -0.0100817 0.0297257)
(0.0868107 -0.00479374 0.0294355)
(0.0839098 0.00021556 0.0291737)
(0.0795872 0.00531135 0.0285237)
(0.0742032 0.0106326 0.027156)
(0.0675048 0.016737 0.0258734)
(0.0599475 0.0213958 0.0245331)
(0.0509136 0.0257726 0.0231626)
(0.0409695 0.0298871 0.0217652)
(0.0296261 0.0337507 0.0200592)
(0.0179124 0.0382602 0.0175606)
(0.00550918 0.0350083 0.0105792)
(8.95444e-05 0.0163149 0.0117651)
(0.00050145 0.0185929 0.0200728)
(0.00222858 0.00395521 0.0219053)
(0.00512687 -0.018997 0.0218868)
(0.010546 -0.0483815 0.0212213)
(0.0163881 -0.0714041 0.0218943)
(0.0226342 -0.0886049 0.0220994)
(0.0290077 -0.100297 0.0221854)
(0.0352083 -0.107598 0.0221682)
(0.0413482 -0.111557 0.0220969)
(0.0465338 -0.112735 0.0220052)
(0.0529121 -0.110235 0.0222624)
(0.0565308 -0.108169 0.0224228)
(0.0613157 -0.104102 0.0223613)
(0.0653803 -0.0980853 0.0225139)
(0.0679137 -0.0887267 0.0224508)
(0.0703325 -0.0792269 0.0223514)
(0.0720338 -0.0692702 0.0225425)
(0.0732855 -0.0589972 0.0230045)
(0.0735343 -0.0494962 0.0230099)
(0.0735584 -0.0398016 0.0229575)
(0.0731007 -0.0298219 0.0228898)
(0.0719947 -0.0197133 0.0228563)
(0.0702773 -0.00932931 0.0229475)
(0.0674746 0.00121373 0.0231059)
(0.0647006 0.0116963 0.0235572)
(0.0597375 0.0260708 0.0244)
(0.0563989 0.0329774 0.0247571)
(0.0497594 0.0443459 0.0246651)
(0.0440206 0.0548849 0.0255806)
(0.0370652 0.0650771 0.0257986)
(0.0291352 0.0749731 0.0254782)
(0.0202245 0.0857105 0.0236867)
(0.0108166 0.0962284 0.0195282)
(0.0030725 0.0867936 0.0124899)
(-8.98016e-05 -0.00102063 0.00763837)
(0.00220508 -0.0222622 0.0132462)
(0.00687184 -0.0561352 0.0145145)
(0.0133186 -0.0922161 0.0141651)
(0.0197837 -0.120715 0.0137381)
(0.0254013 -0.138804 0.0134345)
(0.0298503 -0.148073 0.0134757)
(0.0334625 -0.151315 0.0137924)
(0.0364202 -0.150696 0.014114)
(0.0384712 -0.148687 0.0142091)
(0.0405661 -0.144297 0.0141009)
(0.0421058 -0.138509 0.0138448)
(0.0436837 -0.131405 0.0134475)
(0.0450576 -0.123375 0.0129501)
(0.0457677 -0.114259 0.0124864)
(0.047402 -0.10292 0.0131086)
(0.0475791 -0.0918029 0.0132901)
(0.0483137 -0.0802651 0.0133057)
(0.048311 -0.0687557 0.0127217)
(0.0482727 -0.0566647 0.0121269)
(0.0477611 -0.0441896 0.0115238)
(0.0468563 -0.0318365 0.0108508)
(0.0455984 -0.019008 0.0102431)
(0.0437795 -0.00309492 0.00986867)
(0.0409805 0.0135907 0.00945552)
(0.039014 0.0232269 0.00933371)
(0.0359898 0.0385545 0.00970456)
(0.0326146 0.0538114 0.0107106)
(0.0300942 0.0660614 0.0134879)
(0.0253746 0.0805976 0.0155408)
(0.0210707 0.0951452 0.0175725)
(0.0160264 0.109751 0.0188343)
(0.0102927 0.124012 0.0182674)
(0.00475891 0.132229 0.015244)
(0.000863819 0.109369 0.00879642)
(0.000133919 -0.0103904 0.00459601)
(0.0029797 -0.0512996 0.00743174)
(0.00771621 -0.0952544 0.00813202)
(0.0126491 -0.128298 0.00895876)
(0.0166801 -0.146958 0.0100075)
(0.0197243 -0.155867 0.0109552)
(0.0220735 -0.159738 0.0116662)
(0.0242004 -0.160788 0.0122005)
(0.0258345 -0.160295 0.012367)
(0.027718 -0.158116 0.0122454)
(0.0292223 -0.154474 0.0119685)
(0.0306174 -0.149951 0.0114201)
(0.031819 -0.144221 0.0106285)
(0.0325928 -0.136381 0.00979284)
(0.0332717 -0.126553 0.00890724)
(0.0333972 -0.11509 0.00790767)
(0.0342374 -0.101542 0.00736584)
(0.0337233 -0.0876275 0.00669212)
(0.033425 -0.0726888 0.0064296)
(0.0327655 -0.0574981 0.00637714)
(0.0317646 -0.0423982 0.00637967)
(0.0304378 -0.0267301 0.00634548)
(0.0285556 -0.00905271 0.00616076)
(0.0260456 0.00999724 0.00559357)
(0.0244527 0.0213762 0.00495144)
(0.0221678 0.0364322 0.00428269)
(0.0202498 0.0503556 0.00473299)
(0.0181685 0.064126 0.00574214)
(0.0155757 0.0790114 0.00695081)
(0.0132225 0.0941417 0.00870045)
(0.0106391 0.109579 0.0105536)
(0.00764789 0.125542 0.0117563)
(0.0045512 0.139356 0.0114977)
(0.00161109 0.144547 0.00937228)
(-0.000217158 0.110586 0.0039781)
(0.000391839 -0.0241086 0.00208126)
(0.00379456 -0.0822395 0.00424347)
(0.00815802 -0.129868 0.00600212)
(0.012151 -0.160575 0.00727574)
(0.0154611 -0.177584 0.00795436)
(0.018333 -0.18625 0.00824488)
(0.0208901 -0.190017 0.0083104)
(0.02345 -0.190356 0.00822928)
(0.0254346 -0.188828 0.00805894)
(0.0274947 -0.184937 0.00769277)
(0.0290345 -0.178893 0.00724505)
(0.0302225 -0.169994 0.00691611)
(0.0313791 -0.158402 0.00675066)
(0.0309144 -0.145818 0.00643646)
(0.0316381 -0.132409 0.00575303)
(0.0310864 -0.118029 0.00480428)
(0.0303341 -0.102803 0.00348607)
(0.0293528 -0.0867472 0.00188625)
(0.0281981 -0.0702553 0.000441847)
(0.0267578 -0.0535696 -0.000611603)
(0.0250614 -0.0366143 -0.0011249)
(0.0230784 -0.018211 -0.00092372)
(0.0207945 0.00317383 0.000154513)
(0.0191742 0.0160796 0.000598288)
(0.0174718 0.0303714 0.000982337)
(0.0155735 0.0444747 0.000977323)
(0.0136428 0.0588904 0.000775116)
(0.0119532 0.0730311 0.00106733)
(0.0102705 0.0872177 0.0019552)
(0.00863731 0.101963 0.00337349)
(0.00688907 0.118027 0.00498755)
(0.00478252 0.135128 0.00612561)
(0.00270278 0.148601 0.00615802)
(0.000751861 0.151775 0.00494705)
(-0.000372674 0.110061 0.00195063)
(0.000526057 -0.0387876 0.00168463)
(0.0035046 -0.109683 0.00466722)
(0.00666482 -0.157403 0.00690056)
(0.00923628 -0.183515 0.00828985)
(0.0111483 -0.195719 0.00911146)
(0.0126238 -0.200762 0.0096168)
(0.0138931 -0.201951 0.00993579)
(0.0148169 -0.200793 0.010074)
(0.0156913 -0.197022 0.0100968)
(0.0162287 -0.19104 0.00998551)
(0.0165474 -0.182918 0.00968526)
(0.0166995 -0.172783 0.00909797)
(0.0163734 -0.160723 0.00810882)
(0.017269 -0.146942 0.00680117)
(0.0157974 -0.131679 0.00541975)
(0.0156905 -0.114809 0.00329022)
(0.0150446 -0.0967992 0.000477599)
(0.0143052 -0.0781032 -0.00263152)
(0.0133332 -0.0591305 -0.00539345)
(0.0123093 -0.0401699 -0.00746291)
(0.0111957 -0.0207609 -0.00838937)
(0.0100322 -0.00123732 -0.0078706)
(0.00917313 0.0124308 -0.00692519)
(0.00866655 0.0273383 -0.00554325)
(0.00762251 0.0422037 -0.0047525)
(0.00678356 0.0558348 -0.00427942)
(0.00597422 0.0685009 -0.00402957)
(0.00528291 0.080917 -0.00370029)
(0.00463361 0.0939806 -0.00304241)
(0.00395506 0.108615 -0.00189559)
(0.00312675 0.125465 -0.000424897)
(0.00196772 0.143167 0.000763181)
(0.000811532 0.155594 0.00107216)
(-0.000257901 0.156455 0.000479265)
(-0.000635672 0.107864 -0.00103466)
(0.000478421 -0.0506723 0.00174464)
(0.00208436 -0.127921 0.00513268)
(0.00336145 -0.173311 0.00709524)
(0.00417741 -0.196528 0.00810487)
(0.00465386 -0.207622 0.00872059)
(0.00503372 -0.212443 0.00917979)
(0.00541218 -0.213275 0.00956453)
(0.00571643 -0.211201 0.00986871)
(0.00587929 -0.206503 0.0101294)
(0.00598314 -0.199449 0.010316)
(0.00600533 -0.19015 0.0104049)
(0.0059503 -0.17871 0.0103536)
(0.00581136 -0.165206 0.0100808)
(0.00527966 -0.14944 0.00931835)
(0.00545439 -0.132062 0.00776156)
(0.0050291 -0.113839 0.00603146)
(0.00424386 -0.0944984 0.00427488)
(0.00380442 -0.0746919 0.00134628)
(0.00333404 -0.0550653 -0.00225522)
(0.00285736 -0.0359116 -0.00561552)
(0.00246927 -0.0175752 -0.00798645)
(0.00230576 -0.000455891 -0.00903812)
(0.00230867 0.0142731 -0.00895567)
(0.00214188 0.0293303 -0.00850236)
(0.0021554 0.0435759 -0.00803962)
(0.0021775 0.0565602 -0.00779014)
(0.0022838 0.0687656 -0.00758637)
(0.00234373 0.0809706 -0.00723203)
(0.00244203 0.0941536 -0.0063402)
(0.00227488 0.109388 -0.00521163)
(0.00190361 0.127489 -0.0038766)
(0.00119455 0.146424 -0.00273357)
(0.000447082 0.158669 -0.00226559)
(-0.000264198 0.157954 -0.00235486)
(-0.000457262 0.104543 -0.00240786)
(0.00020368 -0.0563318 0.00250046)
(0.000495915 -0.133233 0.00591201)
(0.000497872 -0.176862 0.00768607)
(0.000232694 -0.198686 0.00865486)
(-0.000155397 -0.20894 0.00930658)
(-0.00064366 -0.213378 0.00987926)
(-0.00115556 -0.214106 0.0103973)
(-0.00165483 -0.211907 0.0108964)
(-0.00209421 -0.207146 0.0113935)
(-0.00246133 -0.200002 0.0119096)
(-0.00274255 -0.190598 0.0124394)
(-0.00293005 -0.179045 0.0129258)
(-0.0030264 -0.165481 0.0132522)
(-0.00296051 -0.15006 0.0132698)
(-0.00284059 -0.132774 0.0127525)
(-0.00273758 -0.113896 0.0113291)
(-0.00217575 -0.0941896 0.00868445)
(-0.00201657 -0.0738665 0.0055761)
(-0.00168182 -0.0533929 0.00185309)
(-0.00136298 -0.0334016 -0.00200479)
(-0.00104013 -0.0147248 -0.00523573)
(-0.000765154 0.00162366 -0.00728671)
(-0.000467906 0.01657 -0.00819449)
(-0.00024309 0.030463 -0.00847181)
(9.67925e-05 0.0436402 -0.00846173)
(0.00050498 0.0562894 -0.00842866)
(0.000947306 0.0682701 -0.00841153)
(0.00133589 0.0804431 -0.0083636)
(0.00160433 0.0941446 -0.00818259)
(0.00163231 0.110808 -0.0075179)
(0.00144411 0.130724 -0.00636683)
(0.000939131 0.150707 -0.00520388)
(0.000391015 0.162416 -0.00455732)
(-0.000155683 0.160024 -0.00417317)
(-0.000292734 0.102552 -0.00285698)
(-0.000100581 -0.056721 0.00272293)
(-0.000353041 -0.133564 0.00578258)
(-0.000758502 -0.177357 0.00723248)
(-0.00112434 -0.199269 0.00787336)
(-0.00148948 -0.20967 0.00818775)
(-0.00195034 -0.214412 0.00840838)
(-0.00238492 -0.215613 0.00857533)
(-0.00277722 -0.214127 0.00874971)
(-0.00308472 -0.210258 0.00899518)
(-0.00329851 -0.204161 0.0093751)
(-0.00340117 -0.195915 0.00995436)
(-0.00337513 -0.185581 0.0107829)
(-0.00321015 -0.173135 0.0119122)
(-0.00295937 -0.158475 0.0134016)
(-0.00262733 -0.141698 0.015142)
(-0.00219903 -0.123022 0.0167767)
(-0.00171568 -0.102758 0.0177015)
(-0.00112025 -0.081559 0.017158)
(-0.000446434 -0.060093 0.0148013)
(0.000273284 -0.0389698 0.0107857)
(0.000944575 -0.0189366 0.0057716)
(0.00140243 -0.000659239 0.000782587)
(0.00172918 0.0151416 -0.00306374)
(0.00193418 0.0294176 -0.0055523)
(0.00215219 0.0422253 -0.0064092)
(0.002321 0.0541877 -0.00684193)
(0.00246783 0.0662116 -0.00719778)
(0.00263416 0.0791706 -0.00749504)
(0.00267769 0.0940724 -0.00774801)
(0.00257087 0.111737 -0.00774907)
(0.00230503 0.133029 -0.00714106)
(0.00172027 0.154064 -0.0062415)
(0.00110123 0.165678 -0.00552574)
(0.000430967 0.1624 -0.00470286)
(-7.14105e-05 0.102791 -0.0024495)
(-6.95438e-05 -0.0557441 0.00251106)
(-0.000155806 -0.133126 0.00521382)
(-1.56537e-05 -0.177866 0.00630101)
(0.000263863 -0.200505 0.00653547)
(0.000492331 -0.211264 0.0063967)
(0.000667386 -0.216257 0.00605852)
(0.000814609 -0.217778 0.00562635)
(0.000975477 -0.216641 0.00515573)
(0.0011819 -0.213156 0.004689)
(0.00144269 -0.207481 0.00428258)
(0.00173275 -0.199724 0.00397711)
(0.00209857 -0.190192 0.00373945)
(0.00231734 -0.178364 0.00375933)
(0.00237151 -0.164202 0.00439175)
(0.00247655 -0.148336 0.00581807)
(0.00263544 -0.131089 0.00825573)
(0.00291856 -0.112381 0.0117689)
(0.00339887 -0.0922966 0.0154482)
(0.0040271 -0.0712468 0.0178876)
(0.00470842 -0.0492289 0.018519)
(0.00536974 -0.0265385 0.0168244)
(0.00582874 -0.00438675 0.0128617)
(0.00586691 0.0125364 0.00858733)
(0.00584673 0.0290823 0.0042022)
(0.00556861 0.0434461 -0.000110666)
(0.00531039 0.0559069 -0.00285098)
(0.00497633 0.067797 -0.0046335)
(0.0046637 0.0804646 -0.00586557)
(0.00431801 0.0954188 -0.00667976)
(0.00403581 0.114474 -0.00688628)
(0.00349727 0.137214 -0.00667177)
(0.00274073 0.159282 -0.00606716)
(0.00189384 0.171045 -0.00537729)
(0.000988683 0.167174 -0.00436113)
(8.69125e-05 0.105208 -0.00181006)
(-6.03934e-05 -0.0561241 0.00196189)
(0.000354694 -0.13584 0.00418839)
(0.00125741 -0.183044 0.00519078)
(0.00230146 -0.206986 0.00539884)
(0.00326537 -0.218215 0.00517259)
(0.00411147 -0.223381 0.00474189)
(0.00484428 -0.225094 0.00417924)
(0.00544785 -0.224293 0.00356882)
(0.00598071 -0.221114 0.00285795)
(0.00639001 -0.215622 0.00210823)
(0.00669344 -0.207625 0.00139192)
(0.0067579 -0.196308 0.00101207)
(0.00663128 -0.182202 0.000960201)
(0.00643847 -0.166665 0.00103067)
(0.00610673 -0.150354 0.00128906)
(0.00581178 -0.133742 0.00192181)
(0.00567937 -0.116927 0.00312621)
(0.00574406 -0.0991149 0.00540386)
(0.00598633 -0.0795231 0.00878906)
(0.00642088 -0.0583771 0.0123376)
(0.0069723 -0.0357556 0.0149882)
(0.00754583 -0.0119404 0.0156267)
(0.00772405 0.0112759 0.0135882)
(0.00762522 0.0276762 0.0104407)
(0.0075237 0.0443423 0.00636084)
(0.00718695 0.0586521 0.00213736)
(0.00669298 0.0714121 -0.000939448)
(0.00612826 0.0844127 -0.0030866)
(0.00550505 0.0995817 -0.00456488)
(0.00485481 0.118815 -0.00545222)
(0.00415886 0.142392 -0.00575004)
(0.00323836 0.165567 -0.00547025)
(0.00221357 0.177985 -0.00485752)
(0.00116848 0.174002 -0.00379115)
(7.80664e-05 0.109622 -0.00130348)
(1.77057e-05 -0.0590427 0.00145911)
(0.00104622 -0.143407 0.0039741)
(0.00253715 -0.19276 0.00556836)
(0.00395596 -0.216948 0.00610664)
(0.00517616 -0.227678 0.00602437)
(0.00620374 -0.232083 0.00566013)
(0.00705659 -0.232803 0.0051291)
(0.0076594 -0.23091 0.0045427)
(0.00805918 -0.226278 0.00378318)
(0.00820761 -0.219072 0.00286013)
(0.00803733 -0.209283 0.00175935)
(0.00762509 -0.196618 0.000597125)
(0.00721695 -0.182174 -0.000343591)
(0.00679068 -0.166628 -0.00109319)
(0.00639809 -0.150332 -0.00150807)
(0.00604798 -0.133764 -0.00164837)
(0.00568169 -0.117275 -0.00174137)
(0.00546097 -0.100547 -0.00105945)
(0.00540079 -0.0829076 0.000747147)
(0.00558733 -0.0637569 0.00355421)
(0.0059789 -0.042496 0.00699565)
(0.0064729 -0.0187745 0.0103398)
(0.00697365 0.00596247 0.0124277)
(0.00725217 0.024113 0.0122027)
(0.00735004 0.0429647 0.00976497)
(0.0070891 0.0594939 0.00656006)
(0.00671088 0.0741809 0.00279434)
(0.00612286 0.0884272 -0.00033404)
(0.00545594 0.104425 -0.00265016)
(0.0047009 0.12443 -0.00418073)
(0.00388173 0.148933 -0.00493367)
(0.00287315 0.172926 -0.00493526)
(0.00185063 0.185528 -0.00442222)
(0.000845812 0.180824 -0.0033941)
(-7.88172e-05 0.11283 -0.00112391)
(2.89893e-05 -0.0640014 0.00183549)
(0.00115302 -0.153333 0.0051068)
(0.00257396 -0.203659 0.00700106)
(0.00381382 -0.227119 0.0075934)
(0.00484983 -0.236919 0.00749317)
(0.00571739 -0.240401 0.00706537)
(0.00639689 -0.240146 0.00646176)
(0.00684936 -0.237062 0.00569619)
(0.00704986 -0.231017 0.00467937)
(0.007023 -0.222066 0.00337891)
(0.00673171 -0.210137 0.00175434)
(0.00637489 -0.196644 -4.71282e-05)
(0.00590005 -0.182099 -0.00199058)
(0.00547679 -0.166457 -0.00367078)
(0.00506976 -0.150157 -0.00482985)
(0.00471815 -0.133645 -0.00535288)
(0.0044639 -0.117137 -0.00514482)
(0.00423785 -0.101055 -0.00473453)
(0.00412632 -0.0847635 -0.00377498)
(0.00416332 -0.0673275 -0.00201853)
(0.00437871 -0.0478042 0.000694871)
(0.0047733 -0.0255666 0.00426297)
(0.00536358 -0.00164881 0.0079221)
(0.0058637 0.0179258 0.00994315)
(0.00617373 0.0393586 0.0100916)
(0.00623686 0.058639 0.00815616)
(0.00587062 0.0754798 0.00535956)
(0.00546408 0.0914431 0.00201713)
(0.00483252 0.10877 -0.00089209)
(0.00410852 0.129841 -0.00304653)
(0.00334218 0.155223 -0.00426935)
(0.00243054 0.179637 -0.00453682)
(0.0015248 0.192008 -0.00413714)
(0.000652183 0.186294 -0.00320181)
(-0.000103227 0.11461 -0.001146)
(9.94813e-05 -0.0686076 0.00210044)
(0.00108304 -0.162031 0.00567065)
(0.00211722 -0.212758 0.00765408)
(0.00295601 -0.235285 0.00831752)
(0.00362726 -0.244113 0.00828997)
(0.00416972 -0.246648 0.00791799)
(0.00455178 -0.24534 0.00733529)
(0.00474203 -0.240676 0.00644491)
(0.00473306 -0.233064 0.00525228)
(0.00448152 -0.22275 0.003718)
(0.00412814 -0.210179 0.00183495)
(0.00370392 -0.196181 -0.000584963)
(0.00331606 -0.180812 -0.00316119)
(0.00289049 -0.16471 -0.00562641)
(0.00252334 -0.148481 -0.00769277)
(0.00226167 -0.132453 -0.00909684)
(0.00209373 -0.116675 -0.00971389)
(0.00212884 -0.100889 -0.00947699)
(0.00219367 -0.0849611 -0.00848792)
(0.00238922 -0.0683612 -0.00680709)
(0.00273239 -0.0502972 -0.0043672)
(0.0032652 -0.0299993 -0.00106574)
(0.00403511 -0.00786499 0.00282787)
(0.00459977 0.0117389 0.00586467)
(0.00503094 0.0342523 0.00810406)
(0.00533661 0.0557394 0.00836207)
(0.00533929 0.0750157 0.00667403)
(0.00499834 0.0931061 0.00409817)
(0.00445832 0.112082 0.00114672)
(0.00378672 0.134345 -0.00145702)
(0.00305265 0.160658 -0.00317693)
(0.00219085 0.185673 -0.00379223)
(0.00133003 0.197973 -0.00358407)
(0.000538245 0.191309 -0.00282462)
(-0.000100186 0.116097 -0.00109386)
(8.22217e-05 -0.0728798 0.00265851)
(0.0006975 -0.169336 0.00660968)
(0.00113567 -0.219542 0.00863309)
(0.00132615 -0.240963 0.00936261)
(0.00154975 -0.248804 0.00939393)
(0.00165089 -0.250586 0.00913259)
(0.00169008 -0.248432 0.00863372)
(0.00162532 -0.242853 0.00785257)
(0.00145021 -0.234208 0.00675525)
(0.00124248 -0.222976 0.00532948)
(0.000993142 -0.209865 0.00355314)
(0.000696039 -0.195213 0.00128818)
(0.000381726 -0.179457 -0.00136881)
(0.000107303 -0.16329 -0.00402031)
(-4.3408e-05 -0.147223 -0.00644986)
(-0.000112948 -0.131567 -0.00842926)
(-6.56004e-05 -0.116374 -0.00978462)
(-3.08733e-06 -0.101679 -0.0105183)
(0.000266631 -0.0869318 -0.010364)
(0.000619349 -0.071637 -0.00943842)
(0.00108618 -0.0550759 -0.00775906)
(0.00170118 -0.0365009 -0.00528131)
(0.00247742 -0.0155013 -0.00203295)
(0.00316609 0.00713182 0.00160871)
(0.00368239 0.027881 0.00451887)
(0.0041761 0.0508316 0.00640935)
(0.00441348 0.0727715 0.00641927)
(0.00420939 0.0933343 0.00470893)
(0.00387551 0.114605 0.00218977)
(0.00322921 0.138692 -0.000493671)
(0.00251286 0.166268 -0.00254166)
(0.00167449 0.191728 -0.00345627)
(0.000911291 0.203561 -0.00342858)
(0.000247947 0.195536 -0.00282178)
(-0.000168967 0.116734 -0.00123523)
(8.00905e-05 -0.0756597 0.00322191)
(0.000127743 -0.172717 0.00730476)
(-0.000106115 -0.221884 0.00928585)
(-0.000407865 -0.242809 0.0102288)
(-0.000656175 -0.250694 0.0107526)
(-0.000880582 -0.252152 0.0108336)
(-0.00110921 -0.249538 0.0106222)
(-0.00132945 -0.243619 0.0101068)
(-0.00154093 -0.234819 0.00921955)
(-0.00174784 -0.223524 0.00789592)
(-0.00182034 -0.210254 0.00614596)
(-0.00187975 -0.195723 0.00415485)
(-0.00182579 -0.180295 0.00191902)
(-0.00164695 -0.164318 -0.000552838)
(-0.0014309 -0.148281 -0.00305581)
(-0.00116345 -0.132581 -0.00536154)
(-0.000873726 -0.117468 -0.00726152)
(-0.000588026 -0.102851 -0.00861019)
(-0.000297186 -0.0883371 -0.00926195)
(1.83795e-05 -0.0734211 -0.00911287)
(0.000402234 -0.0574907 -0.00812523)
(0.000883895 -0.0398972 -0.00630847)
(0.00149132 -0.0201573 -0.00373497)
(0.00222983 0.00144822 -0.000674621)
(0.0029268 0.0224533 0.002142)
(0.00351299 0.0460914 0.00455732)
(0.00381661 0.0697056 0.00557384)
(0.00384589 0.0927793 0.00490881)
(0.00349943 0.116289 0.00291643)
(0.00293701 0.14244 0.000366552)
(0.00221111 0.171411 -0.00184672)
(0.00140669 0.197008 -0.00301941)
(0.000733853 0.208048 -0.00319495)
(0.000174155 0.198522 -0.00273904)
(-0.000139756 0.116781 -0.00117883)
(-4.26466e-05 -0.07616 0.00342936)
(-0.000335266 -0.172894 0.00731026)
(-0.000863642 -0.222019 0.00911788)
(-0.00130667 -0.242878 0.0101695)
(-0.00183423 -0.25107 0.0111878)
(-0.00220523 -0.252854 0.0117962)
(-0.00255678 -0.250583 0.0121559)
(-0.00282669 -0.245044 0.0122701)
(-0.00300424 -0.236736 0.0121258)
(-0.00306197 -0.226097 0.011689)
(-0.00298522 -0.213568 0.0109036)
(-0.00276655 -0.199592 0.00970325)
(-0.00242945 -0.184573 0.0080425)
(-0.00198682 -0.168839 0.00592415)
(-0.00146457 -0.152716 0.00344134)
(-0.000939665 -0.136569 0.000797912)
(-0.00044354 -0.120741 -0.00172737)
(9.90614e-06 -0.105445 -0.00385924)
(0.000381106 -0.09064 -0.00539862)
(0.00069296 -0.0759461 -0.00622206)
(0.00100385 -0.0607412 -0.00625881)
(0.00137142 -0.0442546 -0.00547061)
(0.00183423 -0.0257651 -0.00387062)
(0.00238802 -0.00512525 -0.00161804)
(0.00292978 0.0157915 0.0007975)
(0.00346195 0.0402753 0.00328949)
(0.00380552 0.0657055 0.00486271)
(0.00384203 0.0911743 0.00490163)
(0.00353114 0.117365 0.00345879)
(0.0029417 0.145804 0.00113951)
(0.00219623 0.176197 -0.00112311)
(0.0014049 0.20183 -0.00247634)
(0.000763446 0.212121 -0.0028163)
(0.000241378 0.201307 -0.002479)
(-8.58545e-05 0.117038 -0.00103169)
(-2.16031e-05 -0.075822 0.0034724)
(-0.000393469 -0.172917 0.00689112)
(-0.000949162 -0.221888 0.00841211)
(-0.00141339 -0.242754 0.00939784)
(-0.00183079 -0.251202 0.0103012)
(-0.00217524 -0.253306 0.0111376)
(-0.00245603 -0.251558 0.0119441)
(-0.00263926 -0.246752 0.0126999)
(-0.002716 -0.23938 0.0133719)
(-0.00266971 -0.229833 0.0138879)
(-0.00249246 -0.218435 0.0141325)
(-0.00218348 -0.205452 0.0139681)
(-0.00175422 -0.191156 0.0132871)
(-0.00122389 -0.175827 0.0120315)
(-0.000620276 -0.15975 0.0102019)
(3.78433e-05 -0.143225 0.00787942)
(0.000689997 -0.126577 0.00524222)
(0.00124848 -0.110122 0.00256013)
(0.00171129 -0.0940736 0.000143146)
(0.00206976 -0.0784131 -0.00173976)
(0.00231822 -0.0627652 -0.00290421)
(0.00252324 -0.0464136 -0.00324974)
(0.00275245 -0.0284184 -0.002734)
(0.00305326 -0.00820954 -0.00141169)
(0.00329659 0.0122808 0.000367217)
(0.00357344 0.0358605 0.0025181)
(0.00389143 0.0624195 0.00437964)
(0.00394431 0.0900206 0.00501257)
(0.00365307 0.118659 0.00410295)
(0.00307097 0.149246 0.00204423)
(0.00233602 0.180903 -0.000238013)
(0.00155493 0.206445 -0.00175828)
(0.000908575 0.216053 -0.00226265)
(0.00037407 0.204116 -0.00205547)
(-4.77459e-06 0.117778 -0.000716804)
(-4.44915e-05 -0.0752786 0.00330608)
(-0.000509458 -0.172449 0.00597425)
(-0.00110467 -0.22196 0.00696578)
(-0.00151813 -0.243319 0.00763488)
(-0.00187174 -0.252039 0.00845794)
(-0.002119 -0.254669 0.0092389)
(-0.0022871 -0.253591 0.010086)
(-0.00235287 -0.249576 0.0110019)
(-0.00231774 -0.243093 0.0119704)
(-0.00217372 -0.234485 0.0129455)
(-0.00192566 -0.224041 0.0138548)
(-0.00158222 -0.211972 0.0145971)
(-0.00114694 -0.198469 0.0150452)
(-0.00062897 -0.183718 0.0150608)
(-4.24171e-05 -0.167917 0.014524)
(0.000589282 -0.151293 0.0133652)
(0.00124481 -0.134119 0.0115971)
(0.00189079 -0.116717 0.00934303)
(0.0024297 -0.0994185 0.00684443)
(0.00284629 -0.0824618 0.00442301)
(0.00315884 -0.0657919 0.00238307)
(0.00334983 -0.048959 0.00094965)
(0.0034887 -0.0312008 0.00025258)
(0.00364924 -0.0116454 0.000338988)
(0.00376159 0.010192 0.00116025)
(0.00389353 0.031766 0.00244065)
(0.00413936 0.0586932 0.00410337)
(0.00420656 0.0880316 0.00512112)
(0.00396691 0.119049 0.00473629)
(0.00342637 0.151876 0.00299548)
(0.00270909 0.184953 0.000747249)
(0.00189751 0.210698 -0.000899315)
(0.00118271 0.219955 -0.00154123)
(0.000566678 0.207299 -0.0014568)
(5.27127e-05 0.119094 -0.000316676)
(-6.13807e-05 -0.074573 0.00302578)
(-0.000445241 -0.171209 0.00498124)
(-0.000949488 -0.221369 0.00535601)
(-0.00132947 -0.243395 0.00580874)
(-0.00161535 -0.2528 0.00613774)
(-0.00176869 -0.256048 0.00653248)
(-0.00184669 -0.255634 0.00704352)
(-0.00182848 -0.252356 0.00769865)
(-0.0017222 -0.246682 0.00852485)
(-0.00153909 -0.238937 0.00953471)
(-0.00127756 -0.229376 0.0107094)
(-0.000939394 -0.218185 0.0119841)
(-0.000539244 -0.205507 0.0132479)
(-7.6705e-05 -0.191483 0.0143535)
(0.000446547 -0.176252 0.0151325)
(0.00102062 -0.15996 0.0154194)
(0.00163261 -0.142777 0.0150817)
(0.00225839 -0.12492 0.0140586)
(0.00288676 -0.106677 0.0124013)
(0.00342739 -0.0883754 0.0102977)
(0.00382571 -0.0702377 0.00804892)
(0.00410608 -0.0521603 0.00597114)
(0.00426602 -0.0336213 0.00431326)
(0.00435303 -0.0138212 0.00322151)
(0.00441187 0.00787864 0.00277186)
(0.00449413 0.0287528 0.00303581)
(0.0046139 0.0556855 0.00406616)
(0.00461497 0.08617 0.00515355)
(0.00436759 0.119231 0.00528567)
(0.00382779 0.154282 0.00400801)
(0.00308366 0.188967 0.00188499)
(0.00219589 0.215204 0.000112129)
(0.0013865 0.224324 -0.000691913)
(0.000683714 0.211071 -0.00076579)
(7.0544e-05 0.120908 8.98594e-05)
(-4.44635e-05 -0.0744337 0.00280911)
(-0.000300375 -0.170566 0.00437395)
(-0.000638743 -0.220789 0.0045567)
(-0.000820399 -0.243614 0.00438731)
(-0.000909274 -0.25367 0.00410584)
(-0.000966152 -0.257454 0.00408619)
(-0.000953312 -0.257546 0.00422272)
(-0.000882942 -0.254805 0.00452678)
(-0.000753078 -0.2497 0.00503675)
(-0.000568999 -0.242561 0.00578669)
(-0.000337 -0.233649 0.0067955)
(-5.47373e-05 -0.223168 0.00805809)
(0.000281113 -0.211256 0.00953409)
(0.000659589 -0.198023 0.0111381)
(0.00107917 -0.183563 0.012738)
(0.00154479 -0.16796 0.0141635)
(0.00205091 -0.151296 0.0152261)
(0.00259585 -0.133671 0.0157457)
(0.00316031 -0.11524 0.015588)
(0.00372895 -0.0962408 0.0147121)
(0.00423748 -0.0769507 0.0132132)
(0.00461952 -0.0575231 0.0113154)
(0.00487665 -0.0377815 0.00929231)
(0.0050285 -0.0171575 0.0073722)
(0.00509895 0.00508439 0.00572509)
(0.00513353 0.0258858 0.0048056)
(0.00515267 0.0530737 0.0046493)
(0.00504699 0.0845178 0.00513176)
(0.00471363 0.11938 0.00538196)
(0.00408796 0.156608 0.00454859)
(0.00323599 0.193019 0.00274281)
(0.00225579 0.219889 0.00102548)
(0.00139958 0.228925 0.000143593)
(0.000652243 0.215047 -6.72582e-05)
(2.48711e-05 0.122822 0.000453873)
(-4.08201e-05 -0.0744779 0.00242534)
(-0.000167137 -0.170933 0.00341297)
(-0.000210052 -0.221971 0.00294414)
(-0.000134176 -0.245212 0.00253612)
(-4.24258e-05 -0.255213 0.00234521)
(5.79578e-05 -0.259122 0.00223368)
(0.000179003 -0.259365 0.00221009)
(0.000326576 -0.256843 0.0023049)
(0.000502601 -0.252023 0.00255415)
(0.000700618 -0.245242 0.00299568)
(0.000924224 -0.236764 0.00366541)
(0.00117111 -0.226799 0.00459329)
(0.00143611 -0.215487 0.00579539)
(0.00171914 -0.202934 0.00726214)
(0.00202279 -0.18922 0.00894723)
(0.00235351 -0.174401 0.0107582)
(0.00272051 -0.158508 0.0125544)
(0.00312355 -0.141559 0.0141552)
(0.00355787 -0.123575 0.0153593)
(0.00401255 -0.10462 0.0159761)
(0.00446473 -0.0848501 0.0158769)
(0.00486401 -0.0644357 0.0150446)
(0.00514958 -0.0434374 0.0135844)
(0.00529927 -0.0216254 0.0116657)
(0.00532855 0.00173415 0.00943556)
(0.00530635 0.023202 0.00770588)
(0.00523176 0.0511819 0.00634009)
(0.00503751 0.083793 0.0057474)
(0.00460505 0.120407 0.00549081)
(0.00387736 0.159698 0.00473384)
(0.00291444 0.197598 0.00318871)
(0.00192223 0.22468 0.00161833)
(0.00114067 0.23333 0.000743294)
(0.000429933 0.218477 0.000458201)
(-9.69009e-05 0.124176 0.000707297)
(-3.84228e-05 -0.0748556 0.00164103)
(-2.52743e-05 -0.172227 0.0016395)
(7.58617e-05 -0.223727 0.000903992)
(0.000228294 -0.247176 0.000557527)
(0.000400843 -0.257282 0.0005038)
(0.000597806 -0.261239 0.000556472)
(0.000812634 -0.261532 0.000652494)
(0.00104271 -0.259099 0.000785622)
(0.00129041 -0.254362 0.00097967)
(0.0015472 -0.247682 0.00126707)
(0.00180743 -0.239334 0.00168434)
(0.00206226 -0.229552 0.00227357)
(0.00230804 -0.218498 0.00307985)
(0.00254346 -0.2063 0.00414233)
(0.00277065 -0.19305 0.00548468)
(0.00299563 -0.178803 0.00709696)
(0.00322463 -0.163577 0.00892243)
(0.00346512 -0.147352 0.0108539)
(0.00373051 -0.13008 0.0127371)
(0.00402293 -0.111698 0.0143791)
(0.00433646 -0.0921612 0.0155678)
(0.004649 -0.0714466 0.0161118)
(0.00490561 -0.0494771 0.0158781)
(0.00504572 -0.0261458 0.0148148)
(0.00506959 -0.00185101 0.0130233)
(0.00501853 0.0205871 0.0110887)
(0.00489463 0.0496087 0.00891228)
(0.0046622 0.0834845 0.0073016)
(0.00424165 0.121754 0.00633277)
(0.00355696 0.162781 0.00525909)
(0.00267561 0.201712 0.00367431)
(0.00178373 0.228615 0.00215396)
(0.00107448 0.236739 0.00127847)
(0.000423886 0.220883 0.00092198)
(-6.0415e-05 0.12474 0.000941463)
(-2.71488e-05 -0.0752948 0.00129882)
(0.000119584 -0.172849 0.00101335)
(0.000372897 -0.224617 2.73785e-05)
(0.00065559 -0.248511 -0.000654773)
(0.000933086 -0.258976 -0.00099151)
(0.00121176 -0.26318 -0.00112299)
(0.00149889 -0.263656 -0.00112416)
(0.00179115 -0.261378 -0.00103391)
(0.00209318 -0.256727 -0.000862451)
(0.00238884 -0.250091 -0.000606147)
(0.00267386 -0.241754 -0.000256447)
(0.00293968 -0.231973 0.000204759)
(0.0031795 -0.220943 0.000806942)
(0.00339111 -0.208833 0.00159058)
(0.00357354 -0.195769 0.00261668)
(0.00373084 -0.181834 0.00392226)
(0.00387035 -0.16706 0.0055101)
(0.00400169 -0.151421 0.00733942)
(0.00413801 -0.134837 0.00932239)
(0.00429479 -0.117165 0.0113434)
(0.00447818 -0.0982342 0.013235)
(0.00467853 -0.0778655 0.0147961)
(0.00487651 -0.0558227 0.015809)
(0.00503434 -0.0319066 0.0160564)
(0.00508497 -0.00663488 0.0154053)
(0.0049647 0.0168212 0.0140447)
(0.00479632 0.0472366 0.0118351)
(0.00459963 0.0824265 0.00963365)
(0.0042055 0.122185 0.00821201)
(0.00362975 0.164634 0.00650108)
(0.00290811 0.204655 0.00475929)
(0.0020708 0.231903 0.00319741)
(0.00129697 0.239965 0.00226385)
(0.000623267 0.223678 0.0017655)
(7.01523e-05 0.125782 0.0013694)
(-2.74139e-05 -0.0764558 0.00085793)
(0.000300677 -0.174986 0.000211865)
(0.000813098 -0.226839 -0.000876197)
(0.00128732 -0.250593 -0.00167965)
(0.00169846 -0.26099 -0.00219031)
(0.00206793 -0.26519 -0.00252325)
(0.00241086 -0.265681 -0.00272971)
(0.00272803 -0.263441 -0.00282411)
(0.00303593 -0.258776 -0.00281569)
(0.00332017 -0.252094 -0.00269166)
(0.00358325 -0.243679 -0.00244819)
(0.0038177 -0.233801 -0.0020814)
(0.00401694 -0.222682 -0.00159715)
(0.00417514 -0.21052 -0.000984231)
(0.00428468 -0.197464 -0.00014365)