/*--------------------------------*- C++ -*----------------------------------*\
| =========                 |                                                 |
| \\      /  F ield         | OpenFOAM: The Open Source CFD Toolbox           |
|  \\    /   O peration     | Version:  2.0.x                                 |
|   \\  /    A nd           | Web:      www.OpenFOAM.org                      |
|    \\/     M anipulation  |                                                 |
\*---------------------------------------------------------------------------*/
FoamFile
{
    version     2.0;
    format      ascii;
    class       volScalarField;
    location    "150";
    object      k;
}
// * * * * * * * * * * * * * * * * * * * * * * * * * * * * * * * * * * * * * //

dimensions      [0 2 -2 0 0 0 0];

internalField   nonuniform List<scalar> 
78750
(
2.06778e-06
2.85159e-05
5.19429e-05
7.40585e-05
9.34678e-05
0.000110087
0.000122637
0.000131079
0.000142385
0.000152058
0.000156037
0.000160866
0.000160785
0.000160138
0.000158755
0.000156754
0.000154238
0.000151705
0.00014921
0.000146744
0.000144285
0.000141826
0.00013936
0.000136879
0.000134373
0.000131832
0.000129244
0.000126622
0.000123907
0.000121061
0.00011799
0.000114403
0.000107881
8.84696e-05
3.37669e-05
4.13437e-06
5.10389e-05
0.000102219
0.000144986
0.000179025
0.000204535
0.000220221
0.000234537
0.000234191
0.000229359
0.00022344
0.000216961
0.000210454
0.000204369
0.000198972
0.000194426
0.000190188
0.000185573
0.000180557
0.000175413
0.000170201
0.000164946
0.000159757
0.000154647
0.000149663
0.000144857
0.000140171
0.000135659
0.000131265
0.000126883
0.000122302
0.000116404
0.000108448
0.000103462
0.000139069
3.10926e-05
0.000113024
0.000184336
0.00022771
0.000247623
0.000255581
0.000254719
0.000249049
0.000238169
0.000221604
0.000201576
0.000180528
0.000161079
0.00014547
0.000134474
0.000129048
0.000128375
0.000130436
0.000134626
0.000138584
0.000141585
0.000143348
0.000143743
0.000143215
0.000141684
0.000139296
0.00013635
0.000133098
0.000129526
0.000125645
0.000121495
0.000117612
0.0001183
0.000135965
0.000204334
6.03765e-05
0.000148228
0.000206809
0.000236568
0.000251846
0.000257975
0.000256654
0.00024787
0.000231503
0.000209427
0.000183595
0.000156057
0.000130247
0.00010932
9.58734e-05
8.9516e-05
8.81887e-05
9.02091e-05
9.42787e-05
9.93456e-05
0.000104602
0.000109568
0.000113946
0.000117549
0.000120232
0.000121991
0.000122856
0.000122837
0.00012214
0.000120673
0.000118917
0.000118963
0.000126512
0.000153508
0.000218771
8.44097e-05
0.000169488
0.000228789
0.000260218
0.000275486
0.00027991
0.000274529
0.00025956
0.000237473
0.000210908
0.000182528
0.000154534
0.000128362
0.000106133
8.93621e-05
7.87421e-05
7.36954e-05
7.28162e-05
7.47495e-05
7.85291e-05
8.33678e-05
8.86456e-05
9.38592e-05
9.86119e-05
0.000102695
0.000106101
0.000108853
0.000110966
0.000112589
0.000113948
0.000115842
0.000121102
0.000135605
0.000167951
0.000231686
9.374e-05
0.000178185
0.000235462
0.000265385
0.00028004
0.000284574
0.000279631
0.0002666
0.000246722
0.000221896
0.000194225
0.000165796
0.000138643
0.000114484
9.45745e-05
7.96852e-05
6.99618e-05
6.49062e-05
6.35346e-05
6.50265e-05
6.87024e-05
7.36789e-05
7.92071e-05
8.47302e-05
8.98799e-05
9.44481e-05
9.83832e-05
0.000101853
0.000105171
0.000109023
0.000114831
0.000123674
0.00014213
0.000176327
0.00023841
9.68778e-05
0.000185192
0.000247343
0.000280667
0.000297459
0.000303467
0.000299684
0.000287597
0.000269241
0.000246652
0.000221598
0.000195473
0.000169507
0.000144923
0.000122832
0.000103923
8.83692e-05
7.61765e-05
6.76935e-05
6.28798e-05
6.10594e-05
6.17084e-05
6.46243e-05
6.93861e-05
7.53797e-05
8.194e-05
8.85312e-05
9.49059e-05
0.000101044
0.000107305
0.000114896
0.000126928
0.000148474
0.00018598
0.000255953
9.91263e-05
0.000190001
0.000253309
0.000286923
0.00030383
0.000310019
0.000306661
0.000295122
0.000277586
0.000256195
0.000232961
0.000209411
0.000186567
0.000165109
0.000145548
0.000128315
0.000113426
0.000100395
8.88531e-05
7.86795e-05
7.03972e-05
6.45926e-05
6.16462e-05
6.12672e-05
6.2843e-05
6.70192e-05
7.33329e-05
8.11186e-05
9.0004e-05
0.000100084
0.000112582
0.000128586
0.000154705
0.000198064
0.000278038
0.000101725
0.000197692
0.000265488
0.000301824
0.000320458
0.000328002
0.000325884
0.000315325
0.000298966
0.000278834
0.000256863
0.000234602
0.000213143
0.000193147
0.000174908
0.000158496
0.000143924
0.000131151
0.000119783
0.000109146
9.87531e-05
8.84298e-05
7.84349e-05
7.0171e-05
6.5212e-05
6.48769e-05
6.75327e-05
7.4317e-05
8.44573e-05
9.78169e-05
0.000114157
0.00013351
0.000163774
0.000210708
0.000288951
0.000101961
0.000201219
0.000271116
0.000308612
0.000327984
0.000336207
0.000334955
0.000325452
0.000310439
0.000291972
0.000271917
0.00025174
0.000232481
0.00021479
0.00019894
0.000184858
0.000172229
0.000160691
0.000149961
0.000139886
0.000130098
0.000119844
0.000108446
9.58439e-05
8.32708e-05
7.33494e-05
7.01415e-05
7.46511e-05
8.4831e-05
9.95264e-05
0.000119002
0.000145251
0.000176669
0.000219698
0.000294213
0.000103376
0.000208768
0.000283083
0.000323238
0.000344224
0.000353852
0.000353699
0.000344955
0.000330352
0.00031231
0.000292691
0.000272986
0.000254262
0.000237199
0.000222132
0.000209068
0.00019774
0.000187733
0.000178601
0.000169966
0.000161532
0.000153044
0.00014404
0.000133588
0.000120846
0.000106434
9.28381e-05
8.38468e-05
8.53214e-05
9.77274e-05
0.000118192
0.000148081
0.000183953
0.000233876
0.000337378
0.000105914
0.000213912
0.000290249
0.000331653
0.00035335
0.000363529
0.000363907
0.000355779
0.000341681
0.000324417
0.000305778
0.000287166
0.000269564
0.000253579
0.000239493
0.000227296
0.000216751
0.000207499
0.000199173
0.000191476
0.000184171
0.00017702
0.000169736
0.000161926
0.000152936
0.000141747
0.000128701
0.000115593
0.00010446
0.000103364
0.000115804
0.000147759
0.000189847
0.000256118
0.000384855
0.000110345
0.000222524
0.000302384
0.000346021
0.000369063
0.000380239
0.00038147
0.000373987
0.000359958
0.000342652
0.000323942
0.000305258
0.000287608
0.000271612
0.000257547
0.000245403
0.000234954
0.000225844
0.000217616
0.00020986
0.000202371
0.000195065
0.000187673
0.00017958
0.000169941
0.000157897
0.000143766
0.000130378
0.000118814
0.000113058
0.000118806
0.000153387
0.000206502
0.000278207
0.00038755
0.000113149
0.000227677
0.000309841
0.000355052
0.000379003
0.000390838
0.000392699
0.000385811
0.000372296
0.0003552
0.000336911
0.000318791
0.000301782
0.000286438
0.000272975
0.000261337
0.00025131
0.000242614
0.000234782
0.000227383
0.000220139
0.000212791
0.000204946
0.000195671
0.00018343
0.000166977
0.000147427
0.000130544
0.000120974
0.0001213
0.000135252
0.000172084
0.000224516
0.000289294
0.00036909
0.000116768
0.000235647
0.000321017
0.000368266
0.000393458
0.000406207
0.000408874
0.000402703
0.000389621
0.000372498
0.000354202
0.000336131
0.000319228
0.000304035
0.00029075
0.000279306
0.000269462
0.000260924
0.000253386
0.000246543
0.000240064
0.000233556
0.000226451
0.000217819
0.00020611
0.000189287
0.00016639
0.000142114
0.000128126
0.000129035
0.000146905
0.000187702
0.000237878
0.000292884
0.000368074
0.000120175
0.000240752
0.000328246
0.000377309
0.000403606
0.000417126
0.000420505
0.000415083
0.000402676
0.000386002
0.000367896
0.000350163
0.000333683
0.000318952
0.000306135
0.00029515
0.000285762
0.000277678
0.000270575
0.000264141
0.000258063
0.000252039
0.000245672
0.000238327
0.000228934
0.000215953
0.000197939
0.0001735
0.000152565
0.000143462
0.00015366
0.000194227
0.000244376
0.000303388
0.000406986
0.000125895
0.00024826
0.000338224
0.00038915
0.000416549
0.00043083
0.000434894
0.000430106
0.000418267
0.000401924
0.000383688
0.000365863
0.000349361
0.000334675
0.000321966
0.000311146
0.000301988
0.000294196
0.000287428
0.000281329
0.000275523
0.000269639
0.000263262
0.000255741
0.000245946
0.000232246
0.000213458
0.00019369
0.000175333
0.000161192
0.000162933
0.000195769
0.00024877
0.000318484
0.000435053
0.00013006
0.000252513
0.000344659
0.000397549
0.000426087
0.000441179
0.000446059
0.000442134
0.000431171
0.000415541
0.000397705
0.000379855
0.000363393
0.000348792
0.000336222
0.000325611
0.000316754
0.000309347
0.000303011
0.000297314
0.00029173
0.000285687
0.000278559
0.000269428
0.00025637
0.000236689
0.000211453
0.00018882
0.000174343
0.000168462
0.000178303
0.000216586
0.000273166
0.000341121
0.000421085
0.000131428
0.000256253
0.00035171
0.000406802
0.00043655
0.000452534
0.00045826
0.000455347
0.000445345
0.000430507
0.000413163
0.000395372
0.00037882
0.000364141
0.000351535
0.000340988
0.000332349
0.000325351
0.000319626
0.00031471
0.000309977
0.000304593
0.000297359
0.00028644
0.000268784
0.000241028
0.000206803
0.000180322
0.00017398
0.000177245
0.000197952
0.000240629
0.000290417
0.000336378
0.000346522
0.000128358
0.00025673
0.00035577
0.000413275
0.0004444
0.000461473
0.000468335
0.000466678
0.000457954
0.000444275
0.000427834
0.000410575
0.000394064
0.000379374
0.000366745
0.000356232
0.000347767
0.000341174
0.000336176
0.000332413
0.000329346
0.000326125
0.000321384
0.000312858
0.000297178
0.000270757
0.000233893
0.000199729
0.000189752
0.00019907
0.000224119
0.000264054
0.000297827
0.000317862
0.000302399
0.000122336
0.000257603
0.000360207
0.000419847
0.000452309
0.000470419
0.000478392
0.000477821
0.00047034
0.000457835
0.000442388
0.000425822
0.000409598
0.000394875
0.000382161
0.000371581
0.000363143
0.000356765
0.000352295
0.000349539
0.000348181
0.000347687
0.000347077
0.000344555
0.000337221
0.000321114
0.00029174
0.000249827
0.000214921
0.000210691
0.00023065
0.00026473
0.000295257
0.000312609
0.000309489
0.000118574
0.000259232
0.000364189
0.000425425
0.000459066
0.000478136
0.000487069
0.000487406
0.000481223
0.000469804
0.000455284
0.000439431
0.000423616
0.000408876
0.000396059
0.00038544
0.000377116
0.000371068
0.000367196
0.000365394
0.000365531
0.000367281
0.00036981
0.000372167
0.000372996
0.000370714
0.000361657
0.000338027
0.000294915
0.000251794
0.000237511
0.000256624
0.000289819
0.000316519
0.000390413
0.000118252
0.000263494
0.000369664
0.000431632
0.000466072
0.00048584
0.000495348
0.000496155
0.000490697
0.000479879
0.000465828
0.000450319
0.000434751
0.000420145
0.00040722
0.000396578
0.000388539
0.000383144
0.000380311
0.000380269
0.000382734
0.000387597
0.000393642
0.000399925
0.000405095
0.00040725
0.000405592
0.000396271
0.000372182
0.000331538
0.000289664
0.000268103
0.000290767
0.000347069
0.000492687
0.000122085
0.000269914
0.000375864
0.000437717
0.000472733
0.000493064
0.000502981
0.000504069
0.000499049
0.000488592
0.00047459
0.000458971
0.000443245
0.000428553
0.000415708
0.000405299
0.000397791
0.000393511
0.000392552
0.000394835
0.000401295
0.000410303
0.000421172
0.000432799
0.000443688
0.000451497
0.0004525
0.00044697
0.000423356
0.000386368
0.000342481
0.000302832
0.000309241
0.000381235
0.00053394
0.000129136
0.000277727
0.000382475
0.000443926
0.000479277
0.000500021
0.000510043
0.000510996
0.000505998
0.00049573
0.000481167
0.000465032
0.000448917
0.000434001
0.000421166
0.000411168
0.000404722
0.000402242
0.000403122
0.0004103
0.00042148
0.00043612
0.000453381
0.000472001
0.000490145
0.000504449
0.000509705
0.000504313
0.000475415
0.00043413
0.000383999
0.00033934
0.00034456
0.000413789
0.000554205
0.000140618
0.000287899
0.000391283
0.000451541
0.000486369
0.000506703
0.000516404
0.000517076
0.000511447
0.000499947
0.00048492
0.000468567
0.000452287
0.000437171
0.000424236
0.000414451
0.000408839
0.000408693
0.00041422
0.00042815
0.000445978
0.000468353
0.000494254
0.000522592
0.000551582
0.000576324
0.000588726
0.000584759
0.000553326
0.000508893
0.000446907
0.000376572
0.000371958
0.000438555
0.000615203
0.000156926
0.000300968
0.000401272
0.000459249
0.000492742
0.000511864
0.000520352
0.000519986
0.000513322
0.000497416
0.000480289
0.000463037
0.000446044
0.000430322
0.000417274
0.000408225
0.000404649
0.000407551
0.000420806
0.000440934
0.000469337
0.000503429
0.000545008
0.000593902
0.000644861
0.000689475
0.000710186
0.000700803
0.000660212
0.000607487
0.000534574
0.000445539
0.000421041
0.000480821
0.000632422
0.00017516
0.000314821
0.000411342
0.000466384
0.00049784
0.000515119
0.000522331
0.000520646
0.000509252
0.000495293
0.000478986
0.000461766
0.000444911
0.000429465
0.00041648
0.000407264
0.000403129
0.000405306
0.000418443
0.000443619
0.000476865
0.000519408
0.000574858
0.000644263
0.000724696
0.000797762
0.000840943
0.000836386
0.00078916
0.000702392
0.000591765
0.000489356
0.000462581
0.000509464
0.000607564
0.000193498
0.000328246
0.000420491
0.000472138
0.000500987
0.000515496
0.00051763
0.000512397
0.000502788
0.000488759
0.000471674
0.000453759
0.000436269
0.000420073
0.000406808
0.000398174
0.000394723
0.000396846
0.000409609
0.000434395
0.000472137
0.000523301
0.00059239
0.000683807
0.000791939
0.000895889
0.000964105
0.000968983
0.000936552
0.000829305
0.00067079
0.000541983
0.000499639
0.000524724
0.000588736
0.000215562
0.000342749
0.000429373
0.000477246
0.000503688
0.000517106
0.000517134
0.000510239
0.000497446
0.000481637
0.000463905
0.000445875
0.000428688
0.000413227
0.000400843
0.000393206
0.000390915
0.000393886
0.000405958
0.000429537
0.000471257
0.000528764
0.000611131
0.000723711
0.000858328
0.000992845
0.00108936
0.00111766
0.00108542
0.000944175
0.000736258
0.000582077
0.000537235
0.000547581
0.000563709
0.00023699
0.000355066
0.000436062
0.000480293
0.000504321
0.000511889
0.000511419
0.000503001
0.000488938
0.000472366
0.00045432
0.000436116
0.000418859
0.000403563
0.000391341
0.000383911
0.000382129
0.000386176
0.000399919
0.000424313
0.000466389
0.000532526
0.000638046
0.000777208
0.00093439
0.00108136
0.00118592
0.00122351
0.00117623
0.00100253
0.000772915
0.000612869
0.000560802
0.000543188
0.000491313
0.000248005
0.00036096
0.000438948
0.000481863
0.000501524
0.000511396
0.000511044
0.000502053
0.0004863
0.000467502
0.000447837
0.000428617
0.000411355
0.000396579
0.000384794
0.000377274
0.00037551
0.000380034
0.000394857
0.000422227
0.000471297
0.000550865
0.000671843
0.000824376
0.000978729
0.00111415
0.0012074
0.00123909
0.00118269
0.00101288
0.000797617
0.000641326
0.000572716
0.000529431
0.000451262
0.000266388
0.000368813
0.000441695
0.00048245
0.000502348
0.000510459
0.00050833
0.000497755
0.000480452
0.000459125
0.000437891
0.000418952
0.000402418
0.000388272
0.000377197
0.000370033
0.000368501
0.000373855
0.000390056
0.000421827
0.000482366
0.000585834
0.000736074
0.000903297
0.00105426
0.00117349
0.00125176
0.00126323
0.0011941
0.00103956
0.000833784
0.00067797
0.000586453
0.000520965
0.000429514
0.000280273
0.000371732
0.000440552
0.00048151
0.000504074
0.000511272
0.000506183
0.000493605
0.000475997
0.000455243
0.000433629
0.000412859
0.000394988
0.000380856
0.000370213
0.000362934
0.000360741
0.000366182
0.000382163
0.000415144
0.000481504
0.00060625
0.000774383
0.000950213
0.00109656
0.00119989
0.00124738
0.00124516
0.00117175
0.00102575
0.000846827
0.00070488
0.000600645
0.000510889
0.000389405
0.000280813
0.000367744
0.000439926
0.000484088
0.000505288
0.000511703
0.000507508
0.000494927
0.000474661
0.00045324
0.000431296
0.000410652
0.00039255
0.000378044
0.000367075
0.000359377
0.000356121
0.000358602
0.000368461
0.000390675
0.000438914
0.000539633
0.000708025
0.000892561
0.0010454
0.0011554
0.00119968
0.00119798
0.00113183
0.00100866
0.00086153
0.000719803
0.000603836
0.000491946
0.000349735
0.000276616
0.000362692
0.000435274
0.000478893
0.000500808
0.000509594
0.000506773
0.000492695
0.000474986
0.000452148
0.000431081
0.00041051
0.000391621
0.000376865
0.000365869
0.000359229
0.000355519
0.00035546
0.000362808
0.000380811
0.000418535
0.000492714
0.000619236
0.00078287
0.000936888
0.00105952
0.00112189
0.00112765
0.00107933
0.000979361
0.000852879
0.000728687
0.000610286
0.000486775
0.00033162
0.000267045
0.000356422
0.000431675
0.000475109
0.000498002
0.000508391
0.000504572
0.000492422
0.00047343
0.00045279
0.000430044
0.000409818
0.000392862
0.000378073
0.000366484
0.00035805
0.000354044
0.000352318
0.000354727
0.0003606
0.000374856
0.000413507
0.000499545
0.000633787
0.000779578
0.000917696
0.00101129
0.00104374
0.00102653
0.000954977
0.000851235
0.000742002
0.000622348
0.000488665
0.000332341
0.00025257
0.00034849
0.000426541
0.000471306
0.000495128
0.000505007
0.000504116
0.000493655
0.00047468
0.000453554
0.000432946
0.000413371
0.000395484
0.000379937
0.000367449
0.000358902
0.000354473
0.000353627
0.000355917
0.000361519
0.000371405
0.000387092
0.000422769
0.000504089
0.00062961
0.00076705
0.000870979
0.000927117
0.000937976
0.000901073
0.000825034
0.000733335
0.000626511
0.000496047
0.000348598
0.000242386
0.000344629
0.000424986
0.000470161
0.000494051
0.000504505
0.000504603
0.000494245
0.000476093
0.000456677
0.000436472
0.000417167
0.000399733
0.000384501
0.000371734
0.0003617
0.000355
0.00035285
0.000354469
0.000360402
0.000368941
0.000380417
0.000397952
0.000428359
0.000503231
0.000620061
0.000737148
0.000820067
0.000858579
0.000849589
0.000798925
0.000727177
0.000639579
0.000519956
0.000384123
0.000231532
0.000339528
0.000424369
0.000470345
0.000493731
0.000502773
0.00050441
0.000495395
0.000478344
0.000459615
0.000440367
0.000421888
0.000404837
0.00038957
0.000376579
0.000366214
0.000358707
0.000354798
0.000355089
0.000360558
0.000369468
0.000382322
0.000398932
0.000418122
0.000445741
0.000512254
0.000617068
0.000713219
0.000773635
0.000789223
0.000764544
0.000711288
0.000641273
0.000539954
0.000416923
0.000222192
0.000339153
0.000423618
0.000469758
0.000493553
0.000503876
0.000504149
0.000496145
0.000480186
0.000462075
0.000443109
0.000425048
0.000408468
0.000393476
0.000380521
0.000370064
0.000362543
0.000358355
0.000358092
0.000362464
0.000372739
0.000389531
0.000411249
0.000428425
0.000440859
0.000465705
0.000535551
0.000629324
0.000708939
0.000746525
0.000739496
0.000701453
0.00064774
0.000554684
0.000437626
0.000218758
0.000337189
0.000422672
0.000468888
0.000492823
0.000503839
0.000504371
0.00049691
0.000482987
0.000465104
0.000445974
0.000427842
0.000411409
0.000396529
0.000383549
0.00037295
0.00036523
0.00036092
0.000360643
0.000364946
0.000375268
0.000395311
0.000427377
0.000467915
0.000493766
0.000491809
0.000500001
0.000551345
0.000624129
0.000689505
0.000709507
0.00069052
0.000648092
0.000568431
0.000472353
0.000219912
0.000339322
0.000422227
0.000467667
0.00049267
0.000503182
0.000503184
0.000494333
0.000480171
0.000462087
0.000442353
0.000423592
0.000407464
0.00039297
0.0003801
0.000369313
0.000361066
0.000355988
0.000355053
0.000359309
0.000372731
0.000394173
0.000427986
0.000480646
0.000538055
0.000565082
0.000558649
0.000554196
0.00058699
0.000635277
0.000670984
0.000673245
0.000644096
0.000585602
0.000534301
0.000227683
0.000345678
0.000426021
0.000469226
0.000492887
0.000503177
0.000502703
0.000493207
0.000478679
0.00046031
0.000440198
0.000421758
0.000405623
0.000391182
0.000378554
0.000368038
0.000360035
0.000355237
0.000354605
0.000359007
0.000373413
0.000397452
0.00044508
0.00051434
0.000594433
0.000654666
0.000670751
0.000646054
0.000610977
0.000641872
0.000667863
0.000667853
0.000651319
0.000607814
0.000550017
0.000240571
0.000350749
0.000428562
0.000470809
0.000491962
0.000502181
0.000501516
0.00049206
0.000476805
0.00045827
0.000439029
0.000420021
0.000401659
0.000386444
0.000373548
0.000362797
0.000354524
0.000349415
0.000349173
0.000355343
0.000374121
0.000410344
0.000476309
0.000563461
0.000654829
0.000728232
0.000764547
0.000750462
0.000705663
0.000676702
0.000678082
0.000670513
0.000649013
0.000606448
0.000527716
0.000249414
0.000353425
0.000430503
0.000472246
0.000492425
0.000500837
0.000499369
0.000490135
0.000475906
0.00045737
0.0004375
0.000418322
0.00040095
0.000385855
0.000372132
0.000361178
0.000352694
0.000347092
0.000346001
0.000353292
0.000375448
0.00042091
0.000500817
0.000603446
0.000705232
0.0007825
0.000813328
0.000801914
0.00075653
0.000718467
0.000694975
0.000670831
0.000639118
0.000578667
0.000434512
0.000249542
0.000348911
0.000426778
0.000470086
0.000492356
0.000501126
0.00049988
0.000491313
0.000475802
0.000457112
0.000437467
0.000418464
0.000400627
0.000385285
0.000372726
0.00036155
0.000352439
0.000345721
0.000342247
0.000344538
0.000360846
0.000403086
0.00048062
0.00057906
0.000676815
0.000760847
0.000804087
0.000810486
0.00079202
0.000752467
0.000714317
0.000677617
0.000623817
0.000538189
0.000369162
0.000245538
0.00034664
0.000426034
0.000470334
0.00049353
0.000502645
0.000500813
0.000491494
0.000477337
0.000460037
0.000441486
0.000423138
0.00040598
0.000390309
0.00037616
0.000363813
0.000353496
0.000345762
0.00034153
0.000340395
0.000345482
0.000370019
0.000427222
0.000515913
0.000606895
0.000692035
0.00075323
0.000787241
0.000787111
0.000764505
0.00072602
0.000673647
0.00060914
0.000511118
0.00035087
0.000234673
0.000340933
0.000424824
0.000470459
0.000493363
0.000503469
0.000502843
0.000495637
0.000482139
0.000464918
0.000446373
0.000428203
0.000411301
0.000395962
0.000382237
0.000370088
0.000359437
0.00035032
0.000343165
0.000339105
0.000338163
0.000342311
0.000369781
0.000434522
0.000524298
0.000612871
0.000680619
0.000725222
0.000746683
0.000747477
0.000718017
0.000669748
0.000605336
0.000507169
0.000351544
0.000223818
0.000337227
0.00042399
0.00047042
0.00049259
0.000504362
0.000506585
0.000500685
0.000488578
0.000472693
0.000455113
0.000437393
0.000420465
0.000404733
0.000390436
0.000377693
0.000366493
0.000356782
0.00034852
0.000341875
0.000338317
0.000337749
0.00034081
0.000360312
0.000426357
0.000516758
0.000605237
0.000665152
0.000698943
0.000708022
0.000691832
0.000656304
0.000605406
0.000507715
0.00036434
0.000209163
0.000333484
0.000422879
0.0004706
0.000494507
0.000507254
0.000510002
0.000504629
0.000493001
0.00047756
0.000460476
0.000443253
0.000426757
0.000411402
0.000397408
0.000384847
0.000373749
0.000364121
0.000355922
0.000349124
0.000343521
0.000339352
0.00033888
0.000342588
0.000354759
0.00041561
0.000515069
0.000601234
0.000658851
0.000685186
0.000680856
0.000653842
0.000605807
0.000523351
0.000422005
0.000202177
0.000333131
0.000423729
0.000471032
0.000497139
0.00051068
0.000514292
0.000509816
0.000499159
0.000484573
0.000468066
0.000451176
0.000434818
0.000419415
0.000405191
0.000392284
0.000380766
0.000370681
0.000362092
0.000355151
0.000349993
0.000346365
0.000343463
0.000340947
0.000341498
0.00035117
0.000401838
0.000487691
0.000571856
0.000631087
0.000652986
0.000642676
0.000608102
0.000547214
0.0004857
0.000201151
0.000333171
0.000424862
0.000474266
0.00050043
0.000513963
0.000517659
0.000513294
0.000502726
0.000488251
0.00047194
0.000455298
0.000439098
0.000423832
0.000409685
0.000396792
0.000385197
0.000374944
0.000366122
0.000358959
0.00035381
0.000350819
0.000350249
0.000351279
0.000349909
0.000346374
0.000355917
0.000412253
0.000500838
0.00058161
0.000625752
0.000632175
0.000613972
0.000565165
0.000510246
0.000201942
0.000337174
0.000428943
0.000477891
0.000504115
0.000517863
0.000521721
0.000517506
0.000506846
0.000492222
0.000475941
0.000459716
0.000443613
0.000428473
0.000414408
0.000401507
0.000389781
0.000379278
0.00037013
0.000362661
0.000357469
0.000355229
0.000356944
0.000365235
0.000372505
0.000371155
0.000359264
0.000372608
0.000433532
0.000527821
0.000601998
0.00062296
0.000612832
0.000574896
0.000529196
0.000208415
0.000342246
0.000432615
0.000481223
0.000507332
0.000520916
0.000524566
0.000520178
0.000509244
0.000494288
0.000477785
0.000462012
0.000445937
0.000430827
0.000416715
0.000403802
0.000392135
0.000381747
0.000372739
0.000365393
0.000360277
0.000358645
0.000361305
0.000374957
0.00040437
0.000436455
0.000433155
0.000412308
0.000420781
0.000481035
0.000554835
0.000604509
0.000612071
0.000589287
0.000591695
0.000220687
0.00034884
0.000436621
0.000484744
0.000510816
0.000524286
0.000527742
0.00052303
0.000511548
0.000495808
0.000478341
0.000461927
0.000444135
0.00042788
0.000412828
0.000399443
0.000387466
0.000376882
0.000367728
0.000360226
0.000354833
0.000352414
0.000354843
0.000373337
0.000418777
0.00048241
0.000527777
0.000525098
0.000478994
0.000489572
0.000552074
0.000600809
0.000616457
0.000609125
0.000595743
0.000234173
0.000352638
0.000438587
0.0004869
0.000513284
0.000526589
0.000529659
0.000524685
0.000512986
0.000496988
0.000479051
0.000461161
0.000443704
0.000427223
0.000411919
0.000398144
0.000385678
0.000374443
0.000364343
0.000355559
0.000348618
0.000344981
0.000347867
0.000370888
0.000430981
0.000514739
0.000588858
0.000609632
0.000564313
0.00053759
0.000567488
0.000604869
0.000616976
0.000605038
0.000527045
0.000237167
0.000352714
0.000438573
0.000487905
0.000515329
0.000529147
0.000531918
0.000526756
0.000515009
0.000498667
0.000480019
0.000461328
0.000443804
0.000426978
0.000411702
0.000397861
0.000385325
0.000373986
0.000363837
0.00035502
0.000347589
0.000341844
0.000344219
0.000371592
0.000434184
0.000517022
0.000586435
0.000606826
0.000594622
0.00058349
0.000596928
0.000612911
0.000604897
0.000558041
0.000408615
0.000235487
0.000346817
0.00043295
0.000482109
0.000511366
0.000528701
0.000532877
0.000528297
0.000516844
0.000500838
0.00048235
0.000463182
0.000444535
0.00042744
0.000412072
0.000398246
0.000385765
0.000374428
0.000364094
0.000354878
0.000347174
0.00034136
0.000338639
0.000344186
0.000384469
0.000456036
0.000537756
0.000591657
0.00061012
0.000616549
0.000619551
0.000610772
0.000589052
0.000527155
0.000381755
0.000233953
0.000345558
0.000431509
0.000481787
0.000511121
0.000528876
0.000534792
0.000530776
0.000519764
0.000504288
0.000486294
0.000467612
0.000449458
0.000432698
0.000417491
0.00040375
0.000391379
0.000380189
0.000369967
0.000360529
0.000351677
0.000343325
0.000336053
0.000334761
0.000347079
0.000397754
0.000474073
0.00054134
0.000587188
0.000608612
0.000615771
0.000606624
0.000579439
0.000516995
0.000384434
0.000227057
0.000339457
0.000426688
0.00047771
0.000507241
0.000524087
0.00053139
0.000529822
0.000520726
0.000505999
0.000488188
0.000470069
0.000452565
0.000436281
0.000421435
0.000407959
0.000395774
0.000384738
0.000374711
0.000365613
0.000357295
0.000349331
0.000341233
0.000334685
0.000335061
0.000357428
0.000418773
0.000491648
0.000551252
0.00058883
0.000604435
0.000599377
0.000574436
0.000518795
0.000412263
0.000222171
0.000337487
0.000425282
0.000476563
0.000506083
0.000523065
0.000531024
0.000530918
0.000522821
0.000508818
0.000491566
0.000474014
0.000456855
0.000440844
0.00042625
0.000412963
0.000400929
0.000390026
0.000380164
0.000371314
0.000363359
0.00035596
0.000348317
0.000339678
0.000332399
0.000334185
0.00037102
0.000438617
0.000508583
0.000564163
0.000593301
0.000594359
0.000576717
0.000524066
0.000450666
0.000219233
0.000333611
0.000421101
0.00047292
0.000502796
0.00052028
0.000528072
0.000527943
0.000520264
0.000508738
0.000492611
0.000476026
0.000459583
0.00044406
0.000430023
0.000417128
0.000405334
0.000394612
0.000384928
0.000376339
0.000368889
0.000362394
0.000356206
0.00034948
0.000340085
0.000331381
0.000341183
0.000391452
0.000460977
0.000527389
0.000570971
0.000583522
0.000573714
0.000533514
0.000470805
0.000216326
0.000331973
0.000419708
0.000472076
0.0005025
0.000520207
0.000527989
0.000527221
0.000520104
0.000508881
0.000493903
0.000477776
0.000461772
0.000446471
0.000432747
0.000420144
0.000408558
0.00039797
0.000388399
0.000379989
0.000372939
0.00036741
0.000363271
0.00036129
0.000358061
0.000346621
0.000339614
0.000368854
0.000435083
0.000510401
0.000563513
0.000581754
0.000576449
0.000538157
0.000475592
0.000215445
0.000331785
0.00041887
0.000469383
0.000499868
0.000517836
0.000525748
0.000525112
0.00051774
0.000504971
0.000490007
0.000474773
0.000460323
0.000446714
0.000433473
0.000421111
0.000409724
0.000399332
0.000389974
0.000381824
0.000375169
0.000370513
0.000369435
0.000373804
0.000385433
0.000384655
0.000365874
0.000368638
0.000404422
0.000475177
0.000539572
0.000569203
0.00057122
0.000543391
0.000504236
0.000220339
0.000332726
0.000417538
0.000468567
0.000499032
0.000516955
0.000524869
0.000524151
0.000516533
0.000504213
0.000489022
0.000472665
0.000456626
0.000441823
0.000428523
0.000416594
0.000405636
0.000395638
0.000386698
0.000379094
0.000373296
0.000370192
0.000372343
0.000385178
0.000413205
0.000441791
0.000441019
0.000418324
0.000409951
0.00045819
0.000526158
0.000567345
0.000575646
0.000558814
0.000564373
0.000226049
0.000336685
0.000419075
0.00046689
0.000496365
0.000513802
0.000521176
0.000519872
0.000511665
0.000498952
0.00048403
0.0004685
0.000453369
0.000439126
0.000426006
0.000414114
0.000403092
0.000392729
0.000383146
0.000374665
0.000367886
0.000363739
0.000366187
0.000389074
0.000436019
0.0004862
0.000516707
0.000513006
0.000481511
0.000474153
0.000527446
0.000566535
0.000575003
0.000574608
0.000564933
0.000238926
0.000340955
0.000419449
0.000465896
0.000494944
0.000512261
0.000519649
0.0005183
0.000509827
0.000496472
0.000480541
0.000463727
0.000447768
0.000433159
0.000419925
0.000407728
0.000396356
0.00038541
0.000375149
0.000365874
0.000358262
0.000354255
0.000360592
0.000398946
0.000464802
0.000537806
0.00058433
0.000586492
0.000565288
0.000556183
0.000571895
0.000585116
0.000586942
0.000571636
0.000493654
0.000244049
0.00034318
0.000420145
0.00046421
0.000491465
0.000507704
0.000514237
0.000512188
0.000503572
0.000490789
0.000475805
0.000460631
0.000445076
0.000430581
0.000417149
0.000405002
0.000393786
0.000383541
0.000373776
0.000364702
0.000356312
0.000350716
0.000357557
0.000392542
0.000457109
0.000530378
0.000584063
0.00060398
0.000602829
0.000598428
0.000597666
0.000591249
0.000575529
0.000524024
0.000379518
0.000239035
0.000339089
0.000414966
0.000460496
0.000488254
0.000505084
0.000512574
0.000511524
0.000503409
0.000490471
0.000475385
0.000460317
0.000444904
0.000430021
0.000417147
0.000405369
0.000394283
0.000383909
0.000373975
0.000364597
0.000355436
0.00034697
0.000340964
0.00034788
0.000394468
0.000468758
0.000544218
0.000592799
0.00061772
0.000626469
0.000623228
0.000604919
0.000570793
0.000502791
0.000366194
0.000237267
0.000338178
0.000413657
0.000458008