/*--------------------------------*- C++ -*----------------------------------*\
| =========                 |                                                 |
| \\      /  F ield         | OpenFOAM: The Open Source CFD Toolbox           |
|  \\    /   O peration     | Version:  2.0.x                                 |
|   \\  /    A nd           | Web:      www.OpenFOAM.org                      |
|    \\/     M anipulation  |                                                 |
\*---------------------------------------------------------------------------*/
FoamFile
{
    version     2.0;
    format      ascii;
    class       volScalarField;
    location    "150";
    object      mut;
}
// * * * * * * * * * * * * * * * * * * * * * * * * * * * * * * * * * * * * * //

dimensions      [1 -1 -1 0 0 0 0];

internalField   nonuniform List<scalar> 
78750
(
2.45078e-09
4.488e-06
4.17651e-06
4.68559e-06
5.19469e-06
5.52542e-06
5.96604e-06
6.36449e-06
6.89232e-06
7.35632e-06
7.64912e-06
8.02225e-06
8.14081e-06
8.82465e-06
8.77528e-06
9.10951e-06
9.99411e-06
9.60653e-06
9.58152e-06
9.55411e-06
9.53115e-06
9.48786e-06
9.4407e-06
9.29236e-06
9.21922e-06
8.91613e-06
9.00178e-06
9.15742e-06
8.87248e-06
8.66983e-06
8.5264e-06
7.76487e-06
6.6863e-06
4.76774e-06
3.57438e-08
4.89937e-09
1.65599e-06
3.29464e-06
5.43937e-06
8.10596e-06
1.07658e-05
1.37141e-05
1.59457e-05
1.54473e-05
1.77734e-05
1.95011e-05
2.21326e-05
2.43685e-05
2.60094e-05
2.78335e-05
2.98452e-05
3.14168e-05
3.02985e-05
3.1872e-05
3.32417e-05
2.97534e-05
2.76167e-05
2.58945e-05
2.35705e-05
2.26546e-05
2.07751e-05
2.00975e-05
1.89334e-05
1.64632e-05
1.45667e-05
1.24972e-05
9.55018e-06
6.39298e-06
7.00589e-06
1.46907e-07
3.68219e-08
2.25459e-06
5.95442e-06
1.39966e-05
2.12048e-05
2.24408e-05
1.93384e-05
1.76389e-05
1.66101e-05
1.4782e-05
1.38168e-05
1.37232e-05
1.44654e-05
1.60998e-05
1.92363e-05
3.08721e-05
3.07542e-05
3.11853e-05
3.2039e-05
3.28406e-05
3.34511e-05
3.38202e-05
3.39234e-05
3.3848e-05
3.35767e-05
3.31355e-05
3.25791e-05
2.68456e-05
2.24475e-05
1.79368e-05
1.28434e-05
8.14957e-06
6.89681e-06
1.10529e-05
2.15173e-07
7.14712e-08
3.06706e-06
9.42884e-06
2.11382e-05
2.51558e-05
2.2066e-05
1.78032e-05
1.47606e-05
1.26255e-05
1.14218e-05
1.06369e-05
1.01704e-05
1.01818e-05
1.09921e-05
1.3074e-05
1.66563e-05
2.04661e-05
2.28013e-05
2.37098e-05
2.48234e-05
2.59626e-05
2.56294e-05
2.48697e-05
2.39804e-05
2.29523e-05
2.09212e-05
1.96615e-05
1.82947e-05
1.58028e-05
1.23595e-05
8.42849e-06
5.87767e-06
6.51155e-06
9.79693e-06
2.29888e-07
9.98921e-08
3.33776e-06
1.07206e-05
2.38187e-05
2.45336e-05
1.996e-05
1.60199e-05
1.34205e-05
1.16726e-05
1.03883e-05
9.3758e-06
8.77869e-06
8.49307e-06
8.60425e-06
9.37266e-06
1.11413e-05
1.37415e-05
1.61081e-05
1.76277e-05
1.84233e-05
1.86664e-05
1.8526e-05
1.87902e-05
1.92256e-05
1.89691e-05
1.78491e-05
1.62151e-05
1.41742e-05
1.14579e-05
8.31796e-06
5.86144e-06
4.86856e-06
6.75288e-06
7.94382e-06
2.43021e-07
1.10915e-07
3.59605e-06
1.17168e-05
2.47514e-05
2.45702e-05
1.9751e-05
1.59334e-05
1.35933e-05
1.21744e-05
1.13874e-05
1.08729e-05
1.03484e-05
9.90462e-06
9.60478e-06
9.4475e-06
9.58703e-06
9.85583e-06
1.0106e-05
1.07405e-05
1.1665e-05
1.26535e-05
1.36797e-05
1.43633e-05
1.46552e-05
1.46885e-05
1.42681e-05
1.29777e-05
1.09349e-05
8.59574e-06
6.35626e-06
4.82723e-06
4.50184e-06
7.20617e-06
6.87542e-06
2.49788e-07
1.14624e-07
3.63655e-06
1.17263e-05
2.50999e-05
2.57014e-05
2.12184e-05
1.72622e-05
1.47663e-05
1.33316e-05
1.25084e-05
1.20884e-05
1.1936e-05
1.19857e-05
1.22405e-05
1.2668e-05
1.2731e-05
1.20204e-05
1.11588e-05
1.01835e-05
9.33334e-06
8.97032e-06
8.91677e-06
9.15331e-06
9.50227e-06
9.84538e-06
1.01064e-05
9.76415e-06
8.73302e-06
7.22198e-06
5.51775e-06
4.31798e-06
4.23228e-06
7.2936e-06
6.39579e-06
2.67973e-07
1.17279e-07
3.73132e-06
1.20935e-05
2.57306e-05
2.64894e-05
2.21209e-05
1.82337e-05
1.57622e-05
1.4388e-05
1.37093e-05
1.34798e-05
1.35875e-05
1.40101e-05
1.48046e-05
1.61126e-05
1.79799e-05
1.90103e-05
1.79403e-05
1.56358e-05
1.28489e-05
1.06715e-05
8.70432e-06
7.35331e-06
6.78767e-06
6.47556e-06
6.34536e-06
6.36615e-06
5.94296e-06
5.13618e-06
4.33231e-06
3.7332e-06
4.01308e-06
7.76728e-06
5.81445e-06
2.90818e-07
1.20346e-07
3.77486e-06
1.2139e-05
2.62444e-05
2.77564e-05
2.35524e-05
1.96013e-05
1.70924e-05
1.58009e-05
1.53142e-05
1.5372e-05
1.58501e-05
1.67021e-05
1.79123e-05
1.94768e-05
2.147e-05
2.40641e-05
2.70418e-05
2.7696e-05
2.47629e-05
2.01107e-05
1.50779e-05
1.10803e-05
7.92477e-06
5.83749e-06
4.84476e-06
4.26958e-06
4.00784e-06
3.66276e-06
3.32591e-06
3.3311e-06
4.19954e-06
9.39816e-06
5.21703e-06
3.01957e-07
1.20623e-07
3.82713e-06
1.22792e-05
2.65537e-05
2.84008e-05
2.44805e-05
2.0689e-05
1.82442e-05
1.7016e-05
1.66556e-05
1.69399e-05
1.77783e-05
1.91636e-05
2.10934e-05
2.34319e-05
2.58166e-05
2.78153e-05
2.93616e-05
3.08252e-05
3.22745e-05
3.05178e-05
2.46106e-05
1.76464e-05
1.17285e-05
7.83618e-06
5.14132e-06
3.73304e-06
3.22828e-06
3.06737e-06
2.99508e-06
3.18833e-06
4.45474e-06
1.04505e-05
5.09618e-06
3.07411e-07
1.22296e-07
3.85619e-06
1.22189e-05
2.68092e-05
2.96786e-05
2.61815e-05
2.23287e-05
1.9679e-05
1.82937e-05
1.78985e-05
1.82606e-05
1.92823e-05
2.09632e-05
2.33235e-05
2.62759e-05
2.94083e-05
3.19715e-05
3.32588e-05
3.30437e-05
3.16704e-05
2.97296e-05
2.74805e-05
2.28127e-05
1.63569e-05
1.09851e-05
8.28189e-06
5.51622e-06
3.56329e-06
2.82804e-06
2.582e-06
2.7959e-06
4.0143e-06
9.32957e-06
5.61488e-06
3.52454e-07
1.25295e-07
3.87986e-06
1.22553e-05
2.70567e-05
3.03208e-05
2.70552e-05
2.33418e-05
2.07952e-05
1.95211e-05
1.92977e-05
1.99145e-05
2.1288e-05
2.34236e-05
2.63365e-05
2.98981e-05
3.36301e-05
3.67166e-05
3.84225e-05
3.85281e-05
3.71437e-05
3.44257e-05
3.05358e-05
2.58174e-05
2.07061e-05
1.47306e-05
9.53285e-06
7.95142e-06
5.39952e-06
3.16271e-06
2.42334e-06
2.40822e-06
3.30631e-06
7.68684e-06
5.64567e-06
4.0191e-07
1.30531e-07
3.94127e-06
1.23328e-05
2.72506e-05
3.13296e-05
2.86168e-05
2.50228e-05
2.23902e-05
2.10004e-05
2.07367e-05
2.14308e-05
2.30106e-05
2.55049e-05
2.89606e-05
3.32649e-05
3.79906e-05
4.2313e-05
4.5283e-05
4.64671e-05
4.54379e-05
4.41681e-05
4.1245e-05
3.54766e-05
2.69764e-05
1.79507e-05
1.03527e-05
7.47075e-06
4.97634e-06
3.07055e-06
2.29746e-06
2.13814e-06
3.31566e-06
1.01093e-05
5.21166e-06
4.04437e-07
1.33845e-07
3.95126e-06
1.22226e-05
2.72089e-05
3.18846e-05
2.94446e-05
2.59426e-05
2.33671e-05
2.2042e-05
2.18569e-05
2.26871e-05
2.44718e-05
2.72446e-05
3.10147e-05
3.56282e-05
4.06532e-05
4.54569e-05
4.92434e-05
4.95245e-05
4.83194e-05
4.7124e-05
4.58961e-05
4.19166e-05
3.13298e-05
1.95909e-05
1.09784e-05
6.30734e-06
4.04761e-06
2.80092e-06
2.30167e-06
2.4924e-06
4.05979e-06
1.21753e-05
5.15802e-06
3.85084e-07
1.38121e-07
3.99163e-06
1.2253e-05
2.73879e-05
3.25908e-05
3.04982e-05
2.71414e-05
2.45861e-05
2.32539e-05
2.30514e-05
2.38874e-05
2.57026e-05
2.8489e-05
3.22102e-05
3.66488e-05
4.13054e-05
4.55235e-05
4.87521e-05
5.0639e-05
5.0959e-05
4.94739e-05
4.56137e-05
3.87714e-05
2.93147e-05
1.96063e-05
1.20698e-05
6.93599e-06
4.39737e-06
2.99822e-06
2.40428e-06
2.55989e-06
4.12031e-06
1.23477e-05
5.23868e-06
3.84068e-07
1.42148e-07
3.97604e-06
1.20452e-05
2.70655e-05
3.28381e-05
3.10825e-05
2.78802e-05
2.54013e-05
2.41391e-05
2.40179e-05
2.49283e-05
2.68227e-05
2.96623e-05
3.33523e-05
3.76089e-05
4.19206e-05
4.56775e-05
4.83691e-05
4.96949e-05
4.95072e-05
4.76534e-05
4.38052e-05
3.74499e-05
2.88432e-05
1.98306e-05
1.26704e-05
7.70707e-06
5.71497e-06
3.82419e-06
2.55502e-06
2.50215e-06
4.0965e-06
1.19939e-05
5.71936e-06
4.2464e-07
1.48906e-07
4.0115e-06
1.20461e-05
2.70372e-05
3.32862e-05
3.18931e-05
2.89016e-05
2.65469e-05
2.54116e-05
2.54416e-05
2.65045e-05
2.85756e-05
3.16029e-05
3.54301e-05
3.97201e-05
4.39582e-05
4.76048e-05
5.02625e-05
5.17131e-05
5.18516e-05
5.05916e-05
4.76302e-05
4.20258e-05
3.29453e-05
2.20705e-05
1.30451e-05
7.58499e-06
5.9894e-06
4.14495e-06
2.76249e-06
2.5963e-06
3.7071e-06
1.05489e-05
5.57942e-06
4.53843e-07
1.53827e-07
4.00337e-06
1.18283e-05
2.65379e-05
3.3428e-05
3.25135e-05
2.97531e-05
2.75116e-05
2.64671e-05
2.66041e-05
2.78046e-05
3.00335e-05
3.32764e-05
3.73854e-05
4.20034e-05
4.65993e-05
5.06549e-05
5.38645e-05
5.61103e-05
5.73226e-05
5.73854e-05
5.59833e-05
5.19232e-05
4.22278e-05
2.54232e-05
1.26919e-05
6.73156e-06
4.67759e-06
3.43721e-06
2.67617e-06
2.79205e-06
4.81815e-06
1.51518e-05
5.70104e-06
4.39054e-07
1.55444e-07
3.9978e-06
1.16446e-05
2.61067e-05
3.36684e-05
3.31956e-05
3.06114e-05
2.84527e-05
2.74601e-05
2.76437e-05
2.88811e-05
3.11134e-05
3.43379e-05
3.84254e-05
4.30353e-05
4.76715e-05
5.18693e-05
5.5353e-05
5.80602e-05
5.99873e-05
6.08409e-05
5.98582e-05
5.45966e-05
4.26739e-05
2.5332e-05
1.21242e-05
6.61782e-06
3.83733e-06
2.90977e-06
2.89711e-06
3.5321e-06
6.36141e-06
1.70039e-05
5.49627e-06
3.6134e-07
1.51819e-07
3.92899e-06
1.1127e-05
2.52303e-05
3.36404e-05
3.36177e-05
3.1178e-05
2.90453e-05
2.80242e-05
2.81339e-05
2.92474e-05
3.12835e-05
3.41927e-05
3.786e-05
4.1982e-05
4.61322e-05
4.99086e-05
5.30421e-05
5.53835e-05
5.67734e-05
5.6849e-05
5.45351e-05
4.86587e-05
3.81878e-05
2.58513e-05
1.4485e-05
8.28231e-06
4.67042e-06
3.13888e-06
3.06449e-06
4.03818e-06
7.25326e-06
1.7263e-05
5.48176e-06
3.15422e-07
1.44704e-07
3.84049e-06
1.07806e-05
2.45106e-05
3.35895e-05
3.3887e-05
3.15578e-05
2.9483e-05
2.84822e-05
2.85512e-05
2.95502e-05
3.1359e-05
3.38696e-05
3.69485e-05
4.0348e-05
4.37222e-05
4.67397e-05
4.91441e-05
5.07155e-05
5.11763e-05
5.01692e-05
4.72059e-05
4.18258e-05
3.48681e-05
2.80931e-05
2.10945e-05
1.29262e-05
7.51719e-06
4.16874e-06
3.25494e-06
3.76483e-06
5.77761e-06
1.38003e-05
6.23859e-06
3.23081e-07
1.40259e-07
3.74386e-06
1.0282e-05
2.37487e-05
3.32947e-05
3.39303e-05
3.17995e-05
2.98714e-05
2.8971e-05
2.90536e-05
2.99771e-05
3.16101e-05
3.38183e-05
3.64263e-05
3.92259e-05
4.19641e-05
4.43962e-05
4.63209e-05
4.75438e-05
4.78031e-05
4.67315e-05
4.39662e-05
3.92593e-05
3.35235e-05
2.85806e-05
2.5995e-05
1.99932e-05
1.22496e-05
8.0926e-06
5.27202e-06
3.78623e-06
4.00959e-06
7.7416e-06
8.12389e-06
4.07898e-07
1.39878e-07
3.68497e-06
1.0074e-05
2.33132e-05
3.29779e-05
3.39004e-05
3.2027e-05
3.03315e-05
2.9628e-05
2.98406e-05
3.08022e-05
3.23687e-05
3.43904e-05
3.66846e-05
3.90484e-05
4.13059e-05
4.33283e-05
4.50242e-05
4.62977e-05
4.70131e-05
4.68045e-05
4.51412e-05
4.1409e-05
3.58978e-05
3.09238e-05
2.85532e-05
2.37702e-05
1.62731e-05
1.05339e-05
8.42582e-06
5.19052e-06
3.5045e-06
5.36387e-06
1.07444e-05
5.14608e-07
1.44408e-07
3.65532e-06
9.99305e-06
2.31261e-05
3.26548e-05
3.37897e-05
3.2232e-05
3.07953e-05
3.02704e-05
3.06092e-05
3.16096e-05
3.3128e-05
3.49967e-05
3.70414e-05
3.90821e-05
4.09854e-05
4.27107e-05
4.42811e-05
4.57025e-05
4.68642e-05
4.75514e-05
4.69309e-05
4.40943e-05
3.87859e-05
3.29653e-05
2.84479e-05
2.3712e-05
1.71353e-05
1.2082e-05
1.05641e-05
5.96533e-06
3.52565e-06
5.01682e-06
1.05548e-05
5.57348e-07
1.52739e-07
3.65341e-06
1.00254e-05
2.31475e-05
3.23063e-05
3.35482e-05
3.22941e-05
3.11062e-05
3.07087e-05
3.11067e-05
3.20888e-05
3.353e-05
3.52376e-05
3.7026e-05
3.87346e-05
4.0298e-05
4.17656e-05
4.32153e-05
4.45791e-05
4.60433e-05
4.69066e-05
4.63221e-05
4.34141e-05
3.79286e-05
3.18355e-05
2.78132e-05
2.3162e-05
1.61667e-05
1.42117e-05
1.24267e-05
6.10124e-06
3.83398e-06
5.67762e-06
1.04399e-05
5.78153e-07
1.66305e-07
3.68167e-06
1.01732e-05
2.33723e-05
3.20935e-05
3.33249e-05
3.22688e-05
3.1247e-05
3.09612e-05
3.14154e-05
3.24976e-05
3.39932e-05
3.56589e-05
3.72629e-05
3.86663e-05
3.98718e-05
4.10237e-05
4.23438e-05
4.38732e-05
4.56788e-05
4.65168e-05
4.55554e-05
4.22563e-05
3.62984e-05
3.03028e-05
2.67145e-05
2.33647e-05
1.77332e-05
1.73555e-05
1.51959e-05
7.1967e-06
4.1829e-06
5.64891e-06
1.12882e-05
6.41496e-07
1.85565e-07
3.76226e-06
1.04406e-05
2.3712e-05
3.18533e-05
3.2929e-05
3.19087e-05
3.09833e-05
3.0826e-05
3.12257e-05
3.24084e-05
3.40829e-05
3.58509e-05
3.74191e-05
3.86989e-05
3.97873e-05
4.09321e-05
4.23746e-05
4.45524e-05
4.67729e-05
4.78635e-05
4.56321e-05
4.03327e-05
3.44469e-05
3.04495e-05
2.81717e-05
2.4913e-05
2.00826e-05
2.08648e-05
1.64547e-05
7.66034e-06
4.76732e-06
6.90538e-06
9.99045e-06
6.59025e-07
2.07093e-07
3.8732e-06
1.08048e-05
2.4293e-05
3.18411e-05
3.26211e-05
3.15965e-05
3.07137e-05
3.03664e-05
3.10259e-05
3.24228e-05
3.42371e-05
3.60933e-05
3.76873e-05
3.89446e-05
3.99891e-05
4.10512e-05
4.23738e-05
4.44282e-05
4.68359e-05
4.72365e-05
4.35291e-05
3.6683e-05
3.09595e-05
2.78237e-05
2.65847e-05
2.43304e-05
2.6013e-05
2.50633e-05
1.40302e-05
7.50648e-06
5.71293e-06
1.02628e-05
8.72614e-06
6.32728e-07
2.28736e-07
3.9883e-06
1.11771e-05
2.4867e-05
3.17461e-05
3.20672e-05
3.07373e-05
2.981e-05
2.97991e-05
3.06617e-05
3.21085e-05
3.39189e-05
3.57304e-05
3.71939e-05
3.83175e-05
3.92839e-05
4.02583e-05
4.14034e-05
4.31579e-05
4.50703e-05
4.51938e-05
3.79101e-05
3.07724e-05
2.6822e-05
2.53289e-05
2.59392e-05
2.61756e-05
3.02675e-05
2.71282e-05
1.47386e-05
8.23281e-06
6.94615e-06
1.46435e-05
7.93333e-06
6.12922e-07
2.54767e-07
4.13878e-06
1.16918e-05
2.56178e-05
3.17663e-05
3.1741e-05
3.04443e-05
2.98516e-05
2.99989e-05
3.09109e-05
3.23806e-05
3.42279e-05
3.61936e-05
3.78768e-05
3.91166e-05
4.00434e-05
4.09466e-05
4.19535e-05
4.30976e-05
4.43884e-05
4.12634e-05
3.43787e-05
2.75668e-05
2.41479e-05
2.4306e-05
2.51866e-05
3.09421e-05
3.24818e-05
2.27293e-05
1.41839e-05
9.16913e-06
9.55866e-06
2.45466e-05
7.40316e-06
5.86643e-07
2.8003e-07
4.29739e-06
1.23388e-05
2.6504e-05
3.17873e-05
3.11249e-05
2.97455e-05
2.93006e-05
2.96151e-05
3.05515e-05
3.21468e-05
3.41896e-05
3.61947e-05
3.79491e-05
3.91984e-05
4.00964e-05
4.10078e-05
4.20909e-05
4.34316e-05
4.215e-05
3.6563e-05
2.73748e-05
2.19269e-05
2.07971e-05
2.19401e-05
2.72138e-05
3.01471e-05
2.58923e-05
2.13067e-05
1.56203e-05
1.21498e-05
1.50791e-05
2.80336e-05
6.77843e-06
5.11258e-07
2.93012e-07
4.38329e-06
1.26935e-05
2.6927e-05
3.14564e-05
3.09386e-05
2.97212e-05
2.91901e-05
2.97945e-05
3.06276e-05
3.10359e-05
3.28351e-05
3.53907e-05
3.70981e-05
3.81851e-05
3.8962e-05
3.98084e-05
4.07805e-05
4.15679e-05
3.89878e-05
3.11354e-05
2.25738e-05
1.92566e-05
1.97858e-05
2.20129e-05
2.61617e-05
2.72807e-05
2.45307e-05
2.13686e-05
1.71669e-05
1.52814e-05
2.05956e-05
2.57506e-05
6.39036e-06
4.69561e-07
3.14682e-07
4.51833e-06
1.3054e-05
2.69989e-05
3.15571e-05
3.10774e-05
2.98746e-05
2.89418e-05
2.7947e-05
2.88771e-05
3.243e-05
3.47225e-05
3.59858e-05
3.73972e-05
3.85136e-05
3.93516e-05
4.03003e-05
4.14781e-05
4.18258e-05
3.67597e-05
2.56961e-05
1.84887e-05
1.69524e-05
1.90532e-05
2.35905e-05
2.64092e-05
2.6247e-05
2.52448e-05
2.29158e-05
2.03494e-05
2.01876e-05
2.74861e-05
2.30841e-05
6.12574e-06
4.46897e-07
3.3103e-07
4.66848e-06
1.38555e-05
2.77641e-05
3.18412e-05
3.12211e-05
2.98307e-05
2.91707e-05
2.96417e-05
3.04799e-05
3.14164e-05
3.31668e-05
3.52881e-05
3.70625e-05
3.83114e-05
3.91369e-05
3.99969e-05
4.11297e-05
4.08254e-05
3.33574e-05
2.15424e-05
1.60216e-05
1.565e-05
1.98083e-05
2.43878e-05
2.5815e-05
2.65496e-05
2.57084e-05
2.38559e-05
2.24394e-05
2.49869e-05
3.26489e-05
2.18818e-05
5.88111e-06
4.05192e-07
3.31658e-07
4.64591e-06
1.37005e-05
2.78925e-05
3.17591e-05
3.09185e-05
2.95578e-05
2.87305e-05
2.85085e-05
2.92365e-05
3.07459e-05
3.25994e-05
3.44658e-05
3.60624e-05
3.71214e-05
3.77118e-05
3.82109e-05
3.87147e-05
3.77829e-05
3.04942e-05
1.90789e-05
1.32592e-05
1.32187e-05
1.78789e-05
2.17195e-05
2.27003e-05
2.48022e-05
2.534e-05
2.5152e-05
2.59471e-05
3.01461e-05
3.55771e-05
2.1164e-05
5.67371e-06
3.63971e-07
3.26707e-07
4.6897e-06
1.38711e-05
2.78606e-05
3.18606e-05
3.12533e-05
2.98222e-05
2.87188e-05
2.85541e-05
2.90138e-05
3.02478e-05
3.18993e-05
3.36421e-05
3.527e-05
3.6509e-05
3.74e-05
3.79152e-05
3.80465e-05
3.68539e-05
3.02244e-05
1.94514e-05
1.30952e-05
1.16099e-05
1.49351e-05
1.82325e-05
1.96527e-05
2.34624e-05
2.5166e-05
2.56778e-05
2.70448e-05
3.21664e-05
3.74563e-05
2.15201e-05
5.77393e-06
3.4517e-07
3.15424e-07
4.61772e-06
1.36545e-05
2.77569e-05
3.17591e-05
3.09016e-05
2.91616e-05
2.80634e-05
2.77897e-05
2.83912e-05
2.95359e-05
3.12292e-05
3.31928e-05
3.49532e-05
3.63125e-05
3.71773e-05
3.77501e-05
3.78042e-05
3.6873e-05
3.22565e-05
2.21851e-05
1.35519e-05
1.01309e-05
1.1664e-05
1.36034e-05
1.5658e-05
2.04024e-05
2.29919e-05
2.46745e-05
2.72259e-05
3.27256e-05
3.83324e-05
2.3243e-05
5.93412e-06
3.45962e-07
2.98363e-07
4.569e-06
1.34513e-05
2.75925e-05
3.2022e-05
3.13032e-05
2.97136e-05
2.8502e-05
2.79508e-05
2.83115e-05
2.94458e-05
3.10178e-05
3.27459e-05
3.43648e-05
3.56884e-05
3.66946e-05
3.7406e-05
3.77371e-05
3.72717e-05
3.45563e-05
2.68384e-05
1.71605e-05
1.06619e-05
9.81958e-06
1.05933e-05
1.22759e-05
1.59123e-05
1.90461e-05
2.18236e-05
2.5038e-05
3.04147e-05
3.81442e-05
2.41384e-05
6.15223e-06
3.62895e-07
2.86358e-07
4.50311e-06
1.32107e-05
2.75051e-05
3.21585e-05
3.12986e-05
2.95532e-05
2.82146e-05
2.76352e-05
2.80565e-05
2.92517e-05
3.09908e-05
3.30335e-05
3.50413e-05
3.6761e-05
3.79742e-05
3.87201e-05
3.91558e-05
3.88939e-05
3.68092e-05
3.0798e-05
2.15191e-05
1.35644e-05
9.05252e-06
8.78554e-06
1.01582e-05
1.20822e-05
1.52794e-05
1.82888e-05
2.1652e-05
2.81047e-05
3.76128e-05
2.67884e-05
6.63427e-06
3.99894e-07
2.73561e-07
4.45049e-06
1.30157e-05
2.73851e-05
3.24407e-05
3.14735e-05
2.97321e-05
2.84369e-05
2.79944e-05
2.86134e-05
2.99132e-05
3.17932e-05
3.37962e-05
3.57693e-05
3.77479e-05
3.90849e-05
3.97954e-05
4.01681e-05
3.99929e-05
3.81826e-05
3.24487e-05
2.32166e-05
1.58738e-05
1.10913e-05
8.87375e-06
8.52446e-06
9.74962e-06
1.21425e-05
1.47544e-05
1.81179e-05
2.45266e-05
3.4992e-05
2.83314e-05
6.94629e-06
4.34025e-07
2.62547e-07
4.42547e-06
1.29714e-05
2.76719e-05
3.27297e-05
3.18762e-05
2.96926e-05
2.8342e-05
2.84502e-05
2.93264e-05
3.04782e-05
3.22432e-05
3.45239e-05
3.68281e-05
3.84818e-05
3.97922e-05
4.07222e-05
4.10162e-05
4.04953e-05
3.85558e-05
3.33342e-05
2.48009e-05
1.70219e-05
1.23481e-05
9.62897e-06
8.27404e-06
8.6914e-06
1.03857e-05
1.2628e-05
1.54006e-05
2.08948e-05
3.22444e-05
2.94792e-05
7.07057e-06
4.55531e-07
2.58495e-07
4.37529e-06
1.29593e-05
2.79548e-05
3.26732e-05
3.15901e-05
3.03174e-05
2.93921e-05
2.89321e-05
2.94832e-05
3.10791e-05
3.28104e-05
3.47615e-05
3.69523e-05
3.87128e-05
4.00314e-05
4.0815e-05
4.09471e-05
4.02144e-05
3.7825e-05
3.22461e-05
2.39952e-05
1.7317e-05
1.36342e-05
1.1475e-05
1.02329e-05
9.07776e-06
8.79634e-06
9.9142e-06
1.25664e-05
1.82849e-05
3.01399e-05
3.0434e-05
7.32839e-06
4.9171e-07
2.59849e-07
4.40478e-06
1.3015e-05
2.80591e-05
3.29735e-05
3.19859e-05
3.01951e-05
2.92041e-05
2.92236e-05
2.97329e-05
3.07366e-05
3.29308e-05
3.5765e-05
3.80885e-05
3.98323e-05
4.08435e-05
4.11896e-05
4.09171e-05
3.98557e-05
3.70594e-05
3.08243e-05
2.11966e-05
1.47567e-05
1.25408e-05
1.22013e-05
1.32843e-05
1.14907e-05
8.98237e-06
9.15028e-06
1.13293e-05
1.64663e-05
2.68021e-05
3.25534e-05
7.6156e-06
5.56029e-07
2.69009e-07
4.49416e-06
1.34787e-05
2.85267e-05
3.30016e-05
3.21241e-05
3.06436e-05
2.9922e-05
2.99358e-05
3.06243e-05
3.22644e-05
3.441e-05
3.68744e-05
3.93341e-05
4.11085e-05
4.22525e-05
4.27491e-05
4.26516e-05
4.17484e-05
3.80938e-05
2.88038e-05
1.82909e-05
1.30776e-05
1.18054e-05
1.27137e-05
1.56481e-05
1.5557e-05
1.17921e-05
9.93242e-06
1.08236e-05
1.45414e-05
2.51989e-05
3.11967e-05
7.30453e-06
5.72308e-07
2.84196e-07
4.58395e-06
1.37692e-05
2.87593e-05
3.30187e-05
3.23329e-05
3.09805e-05
2.95763e-05
2.98791e-05
3.22802e-05
3.43728e-05
3.61722e-05
3.85777e-05
4.10143e-05
4.3083e-05
4.41464e-05
4.44507e-05
4.44657e-05
4.40038e-05
3.96373e-05
2.62598e-05
1.54379e-05
1.16593e-05
1.16403e-05
1.42733e-05
1.67383e-05
1.60618e-05
1.38657e-05
1.1823e-05
1.20478e-05
1.74273e-05
3.16055e-05
2.74032e-05
7.08585e-06
5.49009e-07
2.94612e-07
4.7087e-06
1.44745e-05
2.92402e-05
3.3291e-05
3.25116e-05
3.11538e-05
3.11511e-05
3.14992e-05
3.11858e-05
3.28484e-05
3.63519e-05
3.96703e-05
4.26536e-05
4.4828e-05
4.54978e-05
4.56427e-05
4.58152e-05
4.55832e-05
3.96233e-05
2.32435e-05
1.29773e-05
1.0099e-05
1.17235e-05
1.44109e-05
1.55531e-05
1.63413e-05
1.53488e-05
1.45722e-05
1.64293e-05
2.3237e-05
3.46368e-05
2.39278e-05
6.60073e-06
4.52119e-07
2.9476e-07
4.72357e-06
1.43245e-05
2.91748e-05
3.32193e-05
3.23098e-05
3.08511e-05
2.99854e-05
3.01547e-05
3.16195e-05
3.3874e-05
3.66168e-05
3.94322e-05
4.18329e-05
4.3383e-05
4.40904e-05
4.40803e-05
4.37309e-05
4.25504e-05
3.58373e-05
2.11422e-05
1.1714e-05
8.8956e-06
1.06556e-05
1.26029e-05
1.36243e-05
1.66517e-05
1.75868e-05
1.79535e-05
1.98206e-05
2.69069e-05
3.65219e-05
2.28271e-05
6.26664e-06
3.84227e-07
2.90039e-07
4.72227e-06
1.44111e-05
2.91896e-05
3.32823e-05
3.24402e-05
3.08257e-05
2.98783e-05
2.9925e-05
3.0883e-05
3.26897e-05
3.51678e-05
3.79412e-05
4.04545e-05
4.21958e-05
4.29685e-05
4.2921e-05
4.22989e-05
4.09845e-05
3.68205e-05
2.54558e-05
1.36008e-05
8.69913e-06
9.16096e-06
9.97971e-06
1.12054e-05
1.50257e-05
1.70543e-05
1.85123e-05
2.16946e-05
2.90288e-05
3.70249e-05
2.27897e-05
6.14978e-06
3.65247e-07
2.7723e-07
4.68294e-06
1.41809e-05
2.91021e-05
3.34077e-05
3.24262e-05
3.06406e-05
2.96381e-05
2.97047e-05
3.07914e-05
3.27579e-05
3.53551e-05
3.81744e-05
4.06702e-05
4.24546e-05
4.33352e-05
4.33677e-05
4.26702e-05
4.1195e-05
3.78843e-05
2.90544e-05
1.74457e-05
9.78184e-06
8.24791e-06
8.39733e-06
9.16232e-06
1.15302e-05
1.43842e-05
1.70842e-05
2.0903e-05
2.7826e-05
3.55583e-05
2.33159e-05
6.19266e-06
3.65961e-07
2.64433e-07
4.63677e-06
1.39829e-05
2.9009e-05
3.34713e-05
3.26925e-05
3.11301e-05
2.99904e-05
2.98315e-05
3.08342e-05
3.26537e-05
3.50042e-05
3.76122e-05
4.01532e-05
4.23264e-05
4.35618e-05
4.37445e-05
4.3131e-05
4.18181e-05
3.94396e-05
3.51308e-05
2.52944e-05
1.40599e-05
8.11301e-06
7.50774e-06
7.69933e-06
8.67617e-06
1.15189e-05
1.4309e-05
1.80089e-05
2.42041e-05
3.37893e-05
2.39225e-05
6.29939e-06
3.79294e-07
2.47153e-07
4.53477e-06
1.35124e-05
2.88256e-05
3.37953e-05
3.29365e-05
3.10374e-05
3.00797e-05
3.01382e-05
3.08651e-05
3.24168e-05
3.48726e-05
3.74959e-05
4.01506e-05
4.2214e-05
4.36343e-05
4.4463e-05
4.4501e-05
4.35858e-05
4.13173e-05
3.66363e-05
2.9352e-05
1.98082e-05
1.12094e-05
7.41289e-06
6.35882e-06
7.17523e-06
9.33436e-06
1.17279e-05
1.47127e-05
1.99394e-05
3.01989e-05
2.74855e-05
6.75083e-06
4.39358e-07
2.38916e-07
4.48167e-06
1.33551e-05
2.85911e-05
3.38443e-05
3.30348e-05
3.15055e-05
3.03906e-05
3.01838e-05
3.11061e-05
3.29297e-05
3.51443e-05
3.79367e-05
4.06419e-05
4.2746e-05
4.42917e-05
4.51289e-05
4.52138e-05
4.45705e-05
4.31651e-05
4.00667e-05
3.36104e-05
2.37698e-05
1.48352e-05
9.17518e-06
6.33499e-06
6.24593e-06
7.23906e-06
8.46819e-06
1.08092e-05
1.51741e-05
2.48321e-05
2.96361e-05
7.08865e-06
5.05604e-07
2.37706e-07
4.45799e-06
1.33439e-05
2.87871e-05
3.42428e-05
3.36018e-05
3.19963e-05
3.10476e-05
3.09823e-05
3.17232e-05
3.3151e-05
3.52609e-05
3.78945e-05
4.0686e-05
4.3276e-05
4.5212e-05
4.62816e-05
4.64775e-05
4.58355e-05
4.4216e-05
4.11067e-05
3.46454e-05
2.48811e-05
1.59617e-05
1.0468e-05
7.21418e-06
6.16768e-06
6.17448e-06
6.87065e-06
8.81201e-06
1.24692e-05
2.15936e-05
3.04402e-05
7.14461e-06
5.31081e-07
2.38642e-07
4.44405e-06
1.31889e-05
2.87515e-05
3.44262e-05
3.37002e-05
3.20011e-05
3.09424e-05
3.08162e-05
3.16837e-05
3.33913e-05
3.58144e-05
3.86181e-05
4.15017e-05
4.41227e-05
4.60903e-05
4.71503e-05
4.72438e-05
4.63926e-05
4.4465e-05
4.08126e-05
3.39998e-05
2.43114e-05
1.61051e-05
1.12962e-05
8.35424e-06
7.20483e-06
6.04607e-06
5.65242e-06
7.05642e-06
1.07074e-05
2.06165e-05
3.0588e-05
7.32565e-06
5.50791e-07
2.46279e-07
4.4732e-06
1.33293e-05
2.89335e-05
3.45439e-05
3.39507e-05
3.2352e-05
3.13812e-05
3.13265e-05
3.21116e-05
3.37677e-05
3.63457e-05
3.93038e-05
4.22367e-05
4.48411e-05
4.66905e-05
4.75484e-05
4.74176e-05
4.6364e-05
4.42305e-05
4.02013e-05
3.26697e-05
2.24801e-05
1.43106e-05
1.07279e-05
9.28653e-06
9.52694e-06
7.56528e-06
5.61062e-06
6.2787e-06
9.38955e-06
1.80413e-05
3.21601e-05
7.50696e-06
6.15607e-07
2.60754e-07
4.52164e-06
1.35152e-05
2.91354e-05
3.46023e-05
3.41314e-05
3.2635e-05
3.16017e-05
3.14171e-05
3.21882e-05
3.40718e-05
3.757e-05
4.11014e-05
4.41378e-05
4.66229e-05
4.81325e-05
4.86025e-05
4.82802e-05
4.7403e-05
4.58669e-05
4.23515e-05
3.30761e-05
1.84659e-05
1.17251e-05
9.78393e-06
9.66922e-06
1.16064e-05
1.02666e-05
6.70851e-06
6.2747e-06
8.67982e-06
1.78099e-05
3.03858e-05
7.17831e-06
6.19739e-07
2.76656e-07
4.58521e-06
1.38035e-05
2.93364e-05
3.45667e-05
3.42963e-05
3.3077e-05
3.2125e-05
3.20006e-05
3.30255e-05
3.52028e-05
3.87349e-05
4.2603e-05
4.59231e-05
4.87549e-05
5.05646e-05
5.12184e-05
5.10798e-05
5.06204e-05
4.99067e-05
4.67754e-05
3.30726e-05
1.62666e-05
9.51857e-06
8.35356e-06
9.616e-06
1.06508e-05
9.84305e-06
8.14694e-06
8.10024e-06
1.21854e-05
2.47274e-05
2.58934e-05
6.84994e-06
5.48219e-07
2.80185e-07
4.57178e-06
1.37534e-05
2.90964e-05
3.4357e-05
3.4076e-05
3.29672e-05
3.25238e-05
3.25514e-05
3.28419e-05
3.42738e-05
3.67654e-05
4.04315e-05
4.47722e-05
4.83416e-05
5.0501e-05
5.12274e-05
5.1009e-05
5.03706e-05
4.914e-05
4.39105e-05
2.76523e-05
1.35509e-05
8.21938e-06
8.0885e-06
8.70375e-06
9.18952e-06
1.00166e-05
9.98626e-06
1.10285e-05
1.65696e-05
3.0519e-05
2.28484e-05
6.35905e-06
4.25233e-07
2.7821e-07
4.47129e-06
1.3269e-05
2.90379e-05
3.40243e-05
3.39842e-05
3.2815e-05
3.19294e-05
3.1437e-05
3.20138e-05
3.36419e-05
3.52581e-05
3.80707e-05
4.25377e-05
4.62362e-05
4.84704e-05
4.93266e-05
4.90726e-05
4.79924e-05
4.59661e-05
4.10615e-05
2.87308e-05
1.46267e-05
7.94944e-06
6.89699e-06
7.07298e-06
7.93342e-06
9.78792e-06
1.07758e-05
1.25793e-05
1.87246e-05
3.13719e-05
2.3384e-05
6.24942e-06
3.97352e-07
2.76401e-07
4.49566e-06
1.32582e-05
2.82666e-05
3.38393e-05
3.35927e-05
3.23711e-05
3.15355e-05
3.11663e-05
3.20814e-05
3.3761e-05
3.4644e-05
3.72243e-05
4.13435e-05
4.47563e-05
4.75341e-05
4.91634e-05
4.95568e-05
4.87281e-05
4.65552e-05
4.16684e-05
3.13245e-05
1.78005e-05
9.24562e-06
6.59409e-06
6.00739e-06
6.7016e-06
8.4652e-06
1.01847e-05
1.26641e-05
1.82402e-05
2.98936e-05
2.35675e-05
6.19289e-06
4.00149e-07
2.68267e-07
4.37609e-06
1.28213e-05
2.79862e-05
3.38118e-05
3.35715e-05
3.195e-05
3.06269e-05
3.06331e-05
3.1401e-05
3.2343e-05
3.48249e-05
3.76341e-05
4.05738e-05
4.43973e-05
4.73593e-05
4.91303e-05
4.96948e-05
4.92107e-05
4.74941e-05
4.35892e-05
3.43334e-05
2.10716e-05
1.12727e-05
6.93829e-06
5.58134e-06
5.93154e-06
7.24556e-06
9.07611e-06
1.16037e-05
1.67703e-05
2.8711e-05
2.44115e-05
6.39567e-06
4.29106e-07
2.62502e-07
4.32249e-06
1.26392e-05
2.7893e-05
3.39853e-05
3.36815e-05
3.2199e-05
3.10791e-05
3.05801e-05
3.09815e-05
3.24594e-05
3.45218e-05
3.74419e-05
4.09316e-05
4.41573e-05
4.72534e-05
4.92416e-05
4.99703e-05
4.96153e-05
4.79845e-05
4.41962e-05
3.64189e-05
2.43243e-05
1.36862e-05
7.82028e-06
5.52913e-06
5.38048e-06
6.30736e-06
7.71713e-06
9.92418e-06
1.48087e-05
2.64625e-05
2.65347e-05
6.5415e-06
4.69053e-07
2.59036e-07
4.25219e-06
1.23743e-05
2.74965e-05
3.3842e-05
3.3656e-05
3.2139e-05
3.09995e-05
3.06926e-05
3.13344e-05
3.2587e-05
3.4522e-05
3.71052e-05
4.01952e-05
4.35083e-05
4.64848e-05
4.86781e-05
4.98321e-05
4.98793e-05
4.87421e-05
4.56066e-05
3.77008e-05
2.47423e-05
1.44874e-05
8.93235e-06
6.03044e-06
5.2023e-06
5.58184e-06
6.50627e-06
8.45342e-06
1.29895e-05
2.44977e-05
2.709e-05
6.62072e-06
4.89971e-07
2.55607e-07
4.21284e-06
1.21377e-05
2.69597e-05
3.36561e-05
3.35407e-05
3.20721e-05
3.08776e-05
3.0471e-05
3.10772e-05
3.26369e-05
3.50332e-05
3.79417e-05
4.09156e-05
4.36734e-05
4.59036e-05
4.73682e-05
4.79546e-05
4.76107e-05
4.61427e-05
4.27482e-05
3.54582e-05
2.4162e-05
1.47813e-05
9.51482e-06
6.61983e-06
5.45218e-06
5.28648e-06
5.93307e-06
7.76153e-06
1.19268e-05
2.29509e-05
2.73225e-05
6.59247e-06
4.94941e-07
2.54572e-07
4.19763e-06
1.20707e-05
2.66988e-05
3.35668e-05
3.36626e-05
3.22366e-05
3.10815e-05
3.06967e-05
3.11716e-05
3.25888e-05
3.48789e-05
3.7846e-05
4.10605e-05
4.39654e-05
4.61496e-05
4.73843e-05
4.76272e-05
4.68772e-05
4.49474e-05
4.09493e-05
3.29271e-05
2.17402e-05
1.38601e-05
1.00788e-05
7.64924e-06
6.48598e-06
5.50959e-06
5.204e-06
6.79932e-06
1.1111e-05
2.24577e-05
2.78519e-05
6.81027e-06
5.24727e-07
2.60345e-07
4.1946e-06
1.20601e-05
2.66337e-05
3.35845e-05
3.3884e-05
3.2515e-05
3.14324e-05
3.12077e-05
3.19362e-05
3.35914e-05
3.60302e-05
3.89698e-05
4.20285e-05
4.47503e-05
4.66717e-05
4.75584e-05
4.74429e-05
4.63786e-05
4.40694e-05
3.92495e-05
3.04327e-05
1.81979e-05
1.14747e-05
9.19328e-06
8.43322e-06
8.86614e-06
7.17973e-06
5.49206e-06
6.60931e-06
1.03125e-05
1.95188e-05
3.06392e-05
6.90598e-06
5.87092e-07
2.6708e-07
4.26367e-06
1.22961e-05
2.67792e-05
3.34748e-05
3.38358e-05
3.25814e-05
3.17471e-05
3.17528e-05
3.26901e-05
3.45113e-05
3.71075e-05
4.02738e-05
4.36251e-05
4.65564e-05
4.85032e-05
4.92356e-05
4.89745e-05
4.80712e-05
4.61985e-05
4.10511e-05
2.53393e-05
1.41336e-05
9.47551e-06
8.30005e-06
9.95985e-06
1.10218e-05
8.77138e-06
6.98119e-06
6.76056e-06
9.93014e-06
2.13705e-05
2.64674e-05
6.67708e-06
5.87588e-07
2.82266e-07
4.347e-06
1.24745e-05
2.67438e-05
3.35042e-05
3.41397e-05
3.34018e-05
3.26299e-05
3.25103e-05
3.33915e-05
3.52438e-05
3.79246e-05
4.1275e-05
4.48848e-05
4.80423e-05
5.00582e-05
5.07556e-05
5.05444e-05
5.00632e-05
4.89454e-05
4.19152e-05
2.23464e-05
1.07024e-05
7.61487e-06
8.38638e-06
1.015e-05
1.04521e-05
9.63102e-06
8.7271e-06
9.64015e-06
1.46896e-05
2.73871e-05
2.35171e-05
6.35311e-06
5.13439e-07
2.88291e-07
4.38964e-06
1.31623e-05
2.83276e-05
3.33766e-05
3.35699e-05
3.28764e-05
3.21966e-05
3.2143e-05
3.32376e-05
3.52739e-05
3.79846e-05
4.10634e-05
4.42367e-05
4.69559e-05
4.874e-05
4.93107e-05
4.89319e-05
4.78518e-05
4.49224e-05
3.41925e-05
1.92423e-05
9.13773e-06
6.89164e-06
8.09694e-06
8.8566e-06
9.35993e-06
1.06775e-05
1.12343e-05
1.30671e-05
2.01872e-05
3.26966e-05
2.13957e-05
5.96583e-06
3.94928e-07
2.82374e-07
4.42035e-06
1.28827e-05
2.74842e-05
3.32651e-05
3.30412e-05
3.19501e-05
3.17033e-05
3.22663e-05
3.31785e-05
3.45255e-05
3.65033e-05
3.88417e-05
4.11875e-05
4.33309e-05
4.48969e-05
4.55637e-05
4.52921e-05
4.39502e-05
4.11806e-05
3.52656e-05
2.31789e-05
1.23803e-05
6.8175e-06
6.09431e-06
6.77516e-06
7.83173e-06
1.01124e-05
1.18042e-05
1.44831e-05
2.14678e-05
3.36227e-05
2.22884e-05
5.95803e-06
3.81111e-07
2.80279e-07