/*--------------------------------*- C++ -*----------------------------------*\
| =========                 |                                                 |
| \\      /  F ield         | OpenFOAM: The Open Source CFD Toolbox           |
|  \\    /   O peration     | Version:  2.0.x                                 |
|   \\  /    A nd           | Web:      www.OpenFOAM.org                      |
|    \\/     M anipulation  |                                                 |
\*---------------------------------------------------------------------------*/
FoamFile
{
    version     2.0;
    format      ascii;
    class       volScalarField;
    location    "150";
    object      omega;
}
// * * * * * * * * * * * * * * * * * * * * * * * * * * * * * * * * * * * * * //

dimensions      [0 0 -1 0 0 0 0];

internalField   nonuniform List<scalar> 
78750
(
1023.64
4.24954
4.4302
4.5935
4.73334
4.84654
4.93141
4.98741
5.06162
5.12514
5.15099
5.18151
5.18131
5.17716
5.1684
5.15536
5.13901
5.12273
5.10667
5.09076
5.07484
5.0589
5.04287
5.02671
5.01037
4.99374
4.97694
4.95994
4.94238
4.92401
4.90427
4.88228
4.84839
4.75474
1093.51
1023.66
4.42452
4.79458
5.08293
5.31496
5.47156
5.56424
5.64006
5.63814
5.61003
5.57644
5.53944
5.50188
5.46639
5.43456
5.40736
5.38151
5.35259
5.3208
5.28791
5.25426
5.22013
5.186
5.15212
5.11879
5.08642
5.05465
5.02401
4.99424
4.96473
4.93468
4.8975
4.86047
4.86753
1094.32
1023.89
4.86836
5.33125
5.59127
5.69255
5.73904
5.74391
5.71976
5.6628
5.56853
5.4529
5.32729
5.2065
5.10708
5.03608
5.00002
4.99457
5.00655
5.03197
5.05589
5.07365
5.08336
5.08452
5.07971
5.06855
5.05189
5.03169
5.00955
4.98548
4.95998
4.93425
4.91587
4.94063
5.10416
1094.83
1024.13
5.09799
5.46472
5.64334
5.7355
5.7736
5.7678
5.71932
5.62647
5.49756
5.33941
5.16971
5.00793
4.87191
4.78105
4.73563
4.72405
4.73568
4.7617
4.79467
4.82905
4.86147
4.88981
4.91285
4.92974
4.94054
4.94554
4.94495
4.94026
4.93156
4.92396
4.93596
5.01296
5.23144
1094.94
1024.33
5.23122
5.595
5.77971
5.8686
5.89612
5.86916
5.78769
5.66376
5.51021
5.34224
5.16782
5.00047
4.85375
4.73945
4.66457
4.62729
4.61917
4.63114
4.65633
4.68899
4.72461
4.75958
4.79114
4.81793
4.83998
4.85767
4.87139
4.8827
4.89428
4.91389
4.96369
5.08668
5.33334
1095.04
1024.4
5.28678
5.63511
5.80986
5.89484
5.9227
5.89782
5.82719
5.71618
5.57385
5.41022
5.23676
5.0656
4.90846
4.77513
4.67276
4.60424
4.56763
4.55703
4.56688
4.59234
4.62697
4.66531
4.70336
4.73854
4.76956
4.79617
4.81975
4.84296
4.87163
4.91726
4.9921
5.13929
5.39301
1095.1
1024.43
5.33014
5.7038
5.89549
5.99095
6.02637
6.0083
5.94459
5.84474
5.71854
5.57471
5.42035
5.26231
5.10822
4.96583
4.84076
4.73539
4.65085
4.59065
4.55565
4.54194
4.54599
4.56616
4.59943
4.64127
4.68697
4.73279
4.77697
4.81994
4.86532
4.92405
5.01992
5.18666
5.45829
1095.24
1024.45
5.35906
5.73783
5.93025
6.02589
6.06215
6.04649
5.98607
5.89144
5.77318
5.64155
5.50469
5.36847
5.23722
5.11463
5.00419
4.90685
4.82005
4.74173
4.67146
4.61297
4.57104
4.54912
4.54585
4.55702
4.58676
4.63183
4.68747
4.75141
4.82566
4.92174
5.04197
5.236
5.53751
1095.4
1024.47
5.40684
5.80786
6.01277
6.11624
6.15904
6.14998
6.09553
6.00864
5.8993
5.77733
5.65099
5.52656
5.40818
5.29802
5.19701
5.10568
5.0242
4.95044
4.88029
4.81069
4.74043
4.67122
4.61285
4.57771
4.57641
4.59757
4.6486
4.72349
4.82012
4.93133
5.08677
5.30386
5.61592
1095.48
1024.48
5.42834
5.83969
6.04982
6.15657
6.20259
6.19809
6.14968
6.07103
5.97224
5.86278
5.75042
5.64107
5.53882
5.44572
5.36179
5.28552
5.21493
5.14844
5.0852
5.02296
4.9569
4.88236
4.79827
4.71225
4.64228
4.61901
4.6524
4.7271
4.83572
4.9815
5.16669
5.38655
5.67151
1095.54
1024.49
5.47413
5.90663
6.12862
6.24245
6.29509
6.29625
6.25231
6.17713
6.08229
5.97717
5.86961
5.76557
5.66919
5.58281
5.50693
5.44037
5.38095
5.32624
5.27413
5.22292
5.17112
5.11603
5.05193
4.97268
4.88044
4.7897
4.72473
4.73534
4.81337
4.96407
5.17825
5.42485
5.75756
1095.9
1024.52
5.5052
5.9466
6.17377
6.29043
6.3454
6.34913
6.30862
6.2366
6.14669
6.04788
5.9475
5.85101
5.76206
5.68261
5.61301
5.55218
5.49824
5.44918
5.40337
5.35952
5.31632
5.27213
5.22454
5.16953
5.10069
5.01937
4.93657
4.86772
4.85827
4.95068
5.17908
5.46522
5.88517
1096.22
1024.55
5.55614
6.01307
6.24949
6.37161
6.43085
6.4388
6.40199
6.33123
6.24255
6.14497
6.04588
5.95079
5.86333
5.78544
5.71744
5.65837
5.60645
5.55894
5.51352
5.46912
5.42525
5.38052
5.3311
5.27112
5.19478
5.10439
5.01951
4.95064
4.92489
4.98087
5.22647
5.57532
6.0058
1096.22
1024.58
5.58603
6.05351
6.29676
6.42266
6.4848
6.49586
6.4624
6.39488
6.30829
6.21405
6.11915
6.02872
5.94602
5.87256
5.8084
5.75262
5.70387
5.65961
5.61748
5.57595
5.53347
5.48753
5.43234
5.35813
5.25633
5.13239
5.02376
4.96898
4.98565
5.09755
5.34962
5.68144
6.06269
1096.08
1024.61
5.63238
6.11366
6.36512
6.49591
6.56185
6.57674
6.54724
6.4827
6.39701
6.30403
6.21075
6.12225
6.04165
5.97037
5.90835
5.85456
5.80758
5.76586
5.72779
5.69159
5.65511
5.61519
5.56658
5.50019
5.4032
5.26687
5.11591
5.02612
5.0379
5.16426
5.4391
5.75489
6.08072
1096.09
1024.64
5.66218
6.15262
6.41191
6.5473
6.61651
6.63473
6.60911
6.54839
6.46557
6.37459
6.28409
6.1988
6.12158
6.05364
5.99487
5.94427
5.90046
5.86179
5.82662
5.79327
5.76007
5.72481
5.68396
5.63146
5.55838
5.45565
5.31325
5.18768
5.13323
5.20414
5.46697
5.78131
6.13944
1096.43
1024.68
5.70522
6.20567
6.47234
6.61187
6.68405
6.70537
6.68302
6.62569
6.54539
6.45472
6.3648
6.2804
6.20435
6.13783
6.08068
6.03201
5.99042
5.9542
5.92149
5.89023
5.85835
5.82351
5.78198
5.72715
5.64909
5.53972
5.42389
5.31719
5.23864
5.26127
5.47703
5.81776
6.22683
1096.6
1024.72
5.72872
6.23968
6.51509
6.6594
6.7351
6.7603
6.74246
6.68998
6.61394
6.52603
6.43706
6.35382
6.279
6.21384
6.15836
6.1118
6.07276
6.03943
6.00956
5.98024
5.94827
5.91019
5.8606
5.78818
5.67682
5.53251
5.39466
5.31517
5.29032
5.37087
5.62531
5.96068
6.33582
1096.45
1024.73
5.74981
6.27662
6.56152
6.71077
6.79027
6.81945
6.80674
6.75954
6.68831
6.60389
6.51616
6.4336
6.35931
6.29472
6.24016
6.1952
6.15873
6.12905
6.10393
6.08018
6.05343
6.01716
5.9613
5.8689
5.71873
5.52227
5.36105
5.32239
5.35875
5.49887
5.76354
6.05128
6.30512
1095.89
1024.7
5.75261
6.29826
6.59427
6.74958
6.83392
6.86848
6.86195
6.82137
6.75644
6.6773
6.59313
6.51169
6.43819
6.37421
6.32038
6.2767
6.24256
6.21679
6.19779
6.18302
6.16835
6.147
6.10735
6.03154
5.89886
5.70198
5.50057
5.43915
5.49081
5.64761
5.88599
6.08729
6.21653
1095.62
1024.65
5.75836
6.32187
6.62742
6.78844
6.87723
6.91683
6.91545
6.88105
6.82229
6.74872
6.66878
6.58949
6.51678
6.4532
6.39973
6.35672
6.32404
6.30115
6.28725
6.28091
6.27974
6.27937
6.27143
6.2421
6.17142
6.0319
5.80964
5.59408
5.55273
5.66355
5.87209
6.06503
6.19586
1095.73
1024.63
5.7704
6.34405
6.6561
6.82206
6.91495
6.95862
6.96139
6.93321
6.87981
6.81107
6.73515
6.6585
6.58622
6.52277
6.4697
6.42782
6.39731
6.37791
6.36922
6.37077
6.38098
6.39544
6.40945
6.41646
6.40972
6.37378
6.27069
6.06116
5.823
5.71962
5.82222
6.02805
6.21592
1096.39
1024.64
5.79691
6.37361
6.68738
6.85618
6.95174
6.99775
7.00248
6.97781
6.92745
6.86128
6.78743
6.71243
6.64126
6.57761
6.52477
6.48467
6.4578
6.44399
6.44457
6.45869
6.48458
6.5169
6.55094
6.58012
6.59478
6.58976
6.5493
6.43718
6.24108
6.02313
5.89555
6.0288
6.38452
1097.16
1024.67
5.83507
6.40608
6.71741
6.88808
6.9857
7.03323
7.03911
7.01641
6.96783
6.90209
6.82796
6.7525
6.68125
6.61832
6.56689
6.52966
6.50864
6.50462
6.51704
6.55096
6.59793
6.65433
6.7146
6.77141
6.81346
6.82278
6.79926
6.68634
6.50878
6.29213
6.09258
6.15402
6.56214
1097.44
1024.74
5.88076
6.44099
6.74808
6.91913
7.01795
7.06557
7.0707
7.04795
7.00026
6.93186
6.85521
6.77804
6.70618
6.64379
6.59473
6.56296
6.55099
6.55601
6.59356
6.65091
6.7257
6.81317
6.90693
6.99757
7.06956
7.09854
7.07633
6.94324
6.74859
6.50491
6.28926
6.34294
6.72943
1097.6
1024.84
5.93862
6.48579
6.78474
6.95235
7.04887
7.09482
7.09862
7.07286
7.01966
6.94914
6.8716
6.7938
6.72129
6.6588
6.6111
6.58368
6.58336
6.61122
6.68381
6.77271
6.88493
7.01302
7.15148
7.28755
7.40389
7.46429
7.44946
7.31018
7.10825
6.81518
6.47693
6.48118
6.8456
1098.06
1024.98
6.01085
6.5362
6.82215
6.98279
7.07337
7.11404
7.11321
7.08212
7.00713
6.928
6.84772
6.7656
6.68786
6.62312
6.57772
6.55931
6.57377
6.64085
6.73942
6.87948
7.04387
7.23917
7.46408
7.69726
7.90041
8.00165
7.96967
7.79501
7.56252
7.22956
6.81913
6.73061
7.04972
1098.15
1025.13
6.08593
6.58645
6.85666
7.00749
7.08987
7.12515
7.11799
7.06421
6.99797
6.9204
6.83813
6.75757
6.68281
6.61903
6.5732
6.55216
6.56248
6.62526
6.74239
6.9088
7.11174
7.36794
7.68045
8.02908
8.33475
8.5117
8.49683
8.31922
7.9534
7.47266
7.02591
6.93146
7.17277
1097.92
1025.28
6.15688
6.63143
6.88421
7.02256
7.09196
7.10261
7.07991
7.03543
6.96896
6.88726
6.80102
6.71673
6.63757
6.57127
6.5275
6.50935
6.5193
6.58017
6.70026
6.88311
7.12647
7.44005
7.83914
8.29104
8.70668
8.9714
8.99549
8.87518
8.45172
7.80176
7.26469
7.1055
7.23963
1097.77
1025.46
6.23247
6.67457
6.90812
7.03481
7.09931
7.10106
7.06839
7.00865
6.93365
6.84821
6.76091
6.67777
6.60203
6.54008
6.50144
6.48936
6.50412
6.56356
6.6756
6.86352
7.14167
7.51454
7.99817
8.54262
9.05492
9.40605
9.50673
9.38866
8.86455
8.05763
7.43807
7.2731
7.33135
1097.56
1025.63
6.29662
6.70687
6.9215
7.03697
7.07397
7.07249
7.03345
6.968
6.88987
6.80374
6.71558
6.63144
6.55612
6.49475
6.45679
6.44684
6.46659
6.53425
6.6549
6.86497
7.16452
7.62713
8.20873
8.82006
9.35767
9.72411
9.85379
9.69408
9.06596
8.20662
7.57828
7.37492
7.30832
1097.01
1025.72
6.32493
6.71818
6.92662
7.02311
7.06946
7.06923
7.02742
6.95435
6.86653
6.77301
6.67959
6.59416
6.52038
6.46092
6.42182
6.41164
6.43345
6.50583
6.63896
6.87097
7.2385
7.75998
8.37789
8.96323
9.45139
9.77767
9.89144
9.71019
9.1083
8.3186
7.70795
7.42726
7.24608
1096.73
1025.86
6.36117
6.72824
6.91689
7.02153
7.06531
7.05967
7.01084
6.9294
6.82876
6.72788
6.63539
6.55197
6.47987
6.42256
6.38523
6.37596
6.40152
6.47988
6.63285
6.91763
7.37627
8.00747
8.66418
9.2207
9.63788
9.90179
9.9426
9.71901
9.20561
8.46701
7.86569
7.48973
7.21119
1096.58
1025.97
6.37542
6.72222
6.9191
7.01691
7.05465
7.04339
6.99246
6.91428
6.8134
6.70276
6.60226
6.51855
6.44837
6.39454
6.35522
6.33817
6.36127
6.43678
6.59226
6.8972
7.45083
8.14732
8.82478
9.35621
9.71665
9.88113
9.88263
9.65029
9.16175
8.52302
7.98002
7.5537
7.1681
1096.28
1025.98
6.35386
6.718
6.92686
7.02722
7.06372
7.04222
6.98619
6.90418
6.80675
6.70106
6.59967
6.50693
6.43336
6.3777
6.33454
6.31732
6.32729
6.37377
6.47843
6.70018
7.14587
7.85585
8.58928
9.16086
9.55724
9.71946
9.72339
9.51638
9.10384
8.57984
8.03596
7.56686
7.08595
1096
1025.94
6.32694
6.69925
6.92217
7.02596
7.05496
7.04707
6.99055
6.90316
6.80155
6.69566
6.59446
6.50514
6.43166
6.37415
6.33279
6.30778
6.30962
6.34618
6.43004
6.60272
6.93968
7.48846
8.15794
8.76319
9.22724
9.46116
9.49416
9.34316
9.00487
8.55341
8.0883
7.60349
7.0695
1095.87
1025.86
6.29687
6.68461
6.90181
7.01022
7.05719
7.04711
6.99147
6.90428
6.8008
6.69657
6.59658
6.50448
6.42904
6.37074
6.33292
6.30852
6.30179
6.30807
6.34099
6.41233
6.58212
6.96381
7.54815
8.15571
8.69762
9.05676
9.1895
9.14856
8.91014
8.53932
8.12651
7.64807
7.07636
1095.88
1025.75
6.2554
6.65878
6.88155
6.99859
7.04933
7.04552
6.99305
6.90838
6.80616
6.70708
6.61144
6.523
6.44437
6.37994
6.33591
6.3056
6.30097
6.30577
6.3333
6.38131
6.45949
6.61859
6.98133
7.54129
8.11803
8.54052
8.7699
8.82511
8.70675
8.43431
8.08859
7.66506
7.11377
1096.01
1025.67
6.23578
6.65093
6.875
6.99416
7.04648
7.0389
6.99002
6.91134
6.82002
6.7229
6.62868
6.54241
6.46616
6.40153
6.34967
6.31471
6.3051
6.3121
6.33768
6.38248
6.44832
6.54211
6.67477
6.98001
7.50201
8.00838
8.3576
8.52515
8.50928
8.33481
8.06488
7.72451
7.22166
1096.29
1025.58
6.20928
6.64011
6.86671
6.98057
7.03179
7.04209
6.99989
6.92191
6.83419
6.74236
6.65261
6.56843
6.49203
6.42617
6.37296
6.33384
6.3124
6.31275
6.33469
6.3797
6.44245
6.5275
6.63188
6.77162
7.05411
7.51592
7.93237
8.1933
8.27306
8.19404
7.99639
7.72991
7.30702
1096.53
1025.51
6.20195
6.64243
6.87098
6.98514
7.02932
7.03003
6.99992
6.92808
6.84365
6.75387
6.66693
6.58551
6.51065
6.44517
6.39163
6.3525
6.32997
6.32727
6.34888
6.40277
6.48611
6.59546
6.69159
6.74927
6.85716
7.16478
7.58041
7.93146
8.10681
8.09602
7.9598
7.75109
7.36963
1096.69
1025.49
6.20212
6.63479
6.86081
6.97641
7.03438
7.03975
7.00441
6.93849
6.85419
6.76423
6.67943
6.60085
6.52719
6.46153
6.40707
6.3667
6.34318
6.33979
6.35925
6.40629
6.51073
6.66962
6.87354
7.01547
7.02177
7.0515
7.25736
7.56759
7.85675
7.96417
7.90701
7.73919
7.42676
1096.96
1025.51
6.21211
6.63993
6.86488
6.9811
7.02914
7.03149
7.00079
6.93601
6.85061
6.7558
6.66206
6.58388
6.51164
6.44558
6.38959
6.34628
6.31883
6.31228
6.33185
6.39199
6.50376
6.67266
6.92976
7.20474
7.34232
7.32401
7.296
7.44418
7.66845
7.82148
7.82453
7.74252
7.50375
1097.43
1025.57
6.24423
6.65664
6.86978
6.97818
7.03361
7.03657
6.9971
6.9325
6.84657
6.74474
6.65508
6.57397
6.50114
6.43687
6.38234
6.3403
6.31412
6.30892
6.3296
6.40021
6.51935
6.75277
7.08351
7.45132
7.72188
7.80376
7.70888
7.55363
7.65122
7.788
7.8254
7.75655
7.5901
1097.51
1025.68
6.26863
6.66845
6.87905
6.98282
7.0198
7.01671
6.98171
6.90482
6.81727
6.72665
6.63585
6.55356
6.47824
6.41228
6.35667
6.31283
6.2848
6.28208
6.31181
6.39888
6.57717
6.89312
7.29738
7.70163
8.01359
8.17131
8.12662
7.96277
7.86027
7.8642
7.83374
7.75186
7.58375
1097.31
1025.74
6.28203
6.67701
6.88122
6.98358
7.02719
7.02365
6.98115
6.91091
6.82411
6.72966
6.63625
6.54723
6.47406
6.40918
6.35399
6.31025
6.28033
6.26832
6.30153
6.40859
6.6265
7.00093
7.45813
7.89109
8.21484
8.35154
8.33809
8.1577
8.01487
7.92987
7.84091
7.71144
7.45683
1096.61
1025.74
6.25791
6.66385
6.87834
6.98481
7.02832
7.02476
6.97995
6.90552
6.81798
6.72379
6.63329
6.5525
6.47494
6.4075
6.34943
6.30175
6.26665
6.24729
6.25434
6.32495
6.51972
6.88212
7.33312
7.75722
8.12061
8.30963
8.34715
8.30083
8.16689
8.01578
7.86928
7.64702
7.28395
1096.16
1025.7
6.24492
6.65544
6.87746
6.98516
7.03034
7.02904
6.98474
6.92026
6.83973
6.75206
6.66393
6.57959
6.50171
6.43072
6.36754
6.31348
6.27127
6.24575
6.23635
6.2564
6.3645
6.62579
7.03935
7.4594
7.83345
8.09279
8.24899
8.27239
8.19955
8.05745
7.85234
7.58795
7.17156
1096.04
1025.62
6.21485
6.65143
6.86757
6.97771
7.02798
7.03392
7.0031
6.94158
6.86159
6.774
6.68681
6.60456
6.52887
6.46023
6.3988
6.34435
6.29701
6.25861
6.23533
6.23049
6.24377
6.35201
6.66176
7.08543
7.48693
7.79333
7.99516
8.09956
8.11845
8.01678
7.83165
7.58184
7.1593
1096.05
1025.53
6.1975
6.64861
6.8725
6.98318
7.0403
7.0523
7.02689
6.97208
6.89858
6.81595
6.73148
6.64973
6.57276
6.5019
6.43797
6.3811
6.33125
6.28841
6.25317
6.22904
6.22927
6.25411
6.3226
6.62485
7.05348
7.4724
7.75058
7.90886
7.96109
7.91104
7.77727
7.56866
7.16733
1096.17
1025.42
6.1768
6.64381
6.86841
6.9895
7.05234
7.06772
7.04486
6.99246
6.92143
6.84147
6.75969
6.68038
6.60564
6.53664
6.47396
6.41795
6.36878
6.32643
6.29107
6.26236
6.23935
6.23022
6.24594
6.29635
6.56236
7.04033
7.44907
7.72219
7.85814
7.85817
7.76747
7.57681
7.23315
1096.63
1025.37
6.17531
6.63961
6.87714
7.00314
7.06868
7.08764
7.06891
7.021
6.954
6.87715
6.79746
6.71919
6.64455
6.57489
6.51102
6.45343
6.40251
6.35864
6.3227
6.29566
6.27687
6.26307
6.25052
6.2515
6.29945
6.51878
6.92731
7.32887
7.61223
7.73017
7.70822
7.57635
7.34034
1097.09
1025.37
6.1785
6.65141
6.89303
7.01879
7.08403
7.10316
7.08482
7.03734
6.97097
6.89501
6.81648
6.73915
6.66543
6.59625
6.53245
6.47453
6.42293
6.37822
6.34156
6.3154
6.29961
6.29636
6.30257
6.29959
6.27981
6.32076
6.58901
7.01516
7.40061
7.61979
7.66932
7.60965
7.41556
1097.25
1025.38
6.19926
6.67062
6.90995
7.03585
7.10202
7.1219
7.10422
7.05638
6.98939
6.91368
6.83719
6.76032
6.68735
6.6189
6.55507
6.49624
6.44295
6.39611
6.35756
6.33102
6.31947
6.32728
6.37118
6.41767
6.41316
6.35686
6.41692
6.71191
7.16084
7.50817
7.62308
7.60425
7.45639
1097.41
1025.43
6.22732
6.68987
6.92654
7.05129
7.11639
7.1352
7.11668
7.06757
6.99911
6.92245
6.84794
6.77008
6.69656
6.62929
6.56659
6.50827
6.4552
6.40798
6.3678
6.33683
6.3302
6.34515
6.41527
6.56311
6.73083
6.73464
6.64223
6.67925
6.9553
7.30715
7.53184
7.5885
7.51469
1097.86
1025.53
6.26214
6.70994
6.94353
7.06746
7.13178
7.14997
7.12991
7.07828
7.00608
6.92453
6.8466
6.76598
6.68773
6.61234
6.54657
6.4862
6.43227
6.38517
6.34598
6.31743
6.30348
6.31542
6.40611
6.63227
6.94157
7.16389
7.1571
6.96301
6.96233
7.30299
7.5438
7.61524
7.59638
1097.88
1025.64
6.28225
6.7216
6.95522
7.07934
7.14175
7.15942
7.13805
7.08535
7.01204
6.92919
6.84867
6.76508
6.68536
6.60827
6.53998
6.47738
6.42086
6.36934
6.32363
6.28621
6.26453
6.27844
6.38821
6.68851
7.08637
7.42049
7.5161
7.33956
7.25738
7.38652
7.55476
7.61586
7.56997
1097.3
1025.66
6.28372
6.72396
6.96166
7.08986
7.15209
7.17035
7.14849
7.09613
7.02167
6.93552
6.84952
6.76276
6.68087
6.60701
6.53887
6.47606
6.41833
6.36609
6.32034
6.28178
6.25037
6.25771
6.38389
6.67611
7.07093
7.40177
7.51092
7.48324
7.45174
7.51874
7.59296
7.56355
7.36991
1096.45
1025.65
6.24629
6.68892
6.9351
7.07543
7.15057
7.17485
7.15535
7.10509
7.032
6.94678
6.85747
6.76959
6.68739
6.61219
6.54373
6.48124
6.42384
6.37076
6.32261
6.28254
6.24721
6.22583
6.25102
6.44289
6.7858
7.16947
7.43604
7.5363
7.58458
7.6122
7.58528
7.49914
7.24028
1096.29
1025.63
6.24355
6.68685
6.93241
7.07332
7.15641
7.1848
7.16619
7.1191
7.04909
6.96597
6.87832
6.79196
6.71113
6.63693
6.56913
6.50745
6.45112
6.39927
6.35113
6.30551
6.26222
6.22565
6.21378
6.27087
6.51329
6.88253
7.20848
7.43144
7.54327
7.59153
7.56523
7.45852
7.19995
1096.32
1025.58
6.2118
6.6625
6.91385
7.05756
7.13881
7.17456
7.16666
7.12477
7.05663
6.97534
6.89044
6.80753
6.72941
6.65719
6.59096
6.53044
6.47503
6.42412
6.37742
6.33434
6.29283
6.24951
6.2107
6.20329
6.30682
6.61347
6.97453
7.26641
7.45531
7.54279
7.53539
7.44168
7.19909
1096.55
1025.55
6.20243
6.65661
6.90896
7.05208
7.13199
7.17197
7.17324
7.13594
7.07041
6.99187
6.90949
6.82812
6.75142
6.68059
6.61538
6.5557
6.50106
6.45113
6.4059
6.36494
6.32675
6.28758
6.24316
6.20139
6.21123
6.38293
6.71779
7.06086
7.33342
7.48391
7.50612
7.4377
7.23621
1096.84
1025.53
6.18361
6.63689
6.89156
7.035
7.11883
7.15754
7.15632
7.12626
7.06979
6.99729
6.91954
6.84105
6.7678
6.69968
6.63649
6.57812
6.5245
6.47552
6.43157
6.39302
6.35915
6.32693
6.29222
6.24496
6.19775
6.24291
6.49603
6.84455
7.17115
7.38795
7.46265
7.44101
7.27639
1096.98
1025.51
6.17501
6.63009
6.88748
7.03282
7.11732
7.15584
7.15545
7.1246
7.07241
7.00377
6.92848
6.85102
6.78006
6.71412
6.65247
6.5951
6.54207
6.49358
6.45045
6.41384
6.38472
6.36268
6.35184
6.33667
6.28149
6.24603
6.39988
6.72705
7.09608
7.35396
7.44995
7.44112
7.29315
1097.01
1025.51
6.17216
6.61761
6.87356
7.02099
7.10669
7.14484
7.14341
7.11263
7.05438
6.98623
6.91696
6.85084
6.78293
6.71811
6.65729
6.60075
6.54862
6.50116
6.45936
6.42478
6.39997
6.39238
6.4127
6.47233
6.47765
6.39218
6.39499
6.57964
6.92661
7.24278
7.39817
7.42907
7.31865
1097.25
1025.55
6.17827
6.61786
6.87024
7.017
7.10273
7.14141
7.14018
7.10668
7.05077
6.98042
6.90365
6.82779
6.75739
6.69296
6.63405
6.57936
6.52889
6.48331
6.44412
6.41379
6.39686
6.40725
6.46632
6.60322
6.7472
6.75852
6.66309
6.6246
6.87001
7.19208
7.38817
7.42505
7.38257
1097.67
1025.59
6.19649
6.62259
6.86118
7.00427
7.08826
7.12459
7.1204
7.08406
7.02647
6.95787
6.88545
6.81343
6.74453
6.68019
6.62116
6.5661
6.51406
6.46558
6.42227
6.38728
6.365
6.37746
6.48357
6.71189
6.95325
7.10486
7.10124
6.97784
6.95862
7.2229
7.4065
7.44101
7.45084
1097.67
1025.7
6.21718
6.62015
6.85572
6.99756
7.08141
7.11811
7.11397
7.07631
7.01518
6.94184
6.86634
6.79145
6.72029
6.65343
6.59266
6.53569
6.48123
6.42935
6.38163
6.34236
6.31815
6.34544
6.53247
6.84771
7.18342
7.39773
7.41647
7.35088
7.33056
7.40316
7.4698
7.49117
7.43331
1097.09
1025.74
6.23076
6.62508
6.84676
6.98099
7.06049
7.09388
7.08732
7.05078
6.99415
6.92429
6.84431
6.7707
6.70378
6.64304
6.5834
6.52719
6.47364
6.42279
6.37539
6.32925
6.29994
6.32005
6.49075
6.79812
7.14509
7.39859
7.51622
7.52395
7.52053
7.52734
7.50595
7.44427
7.22429
1096.27
1025.7
6.20764
6.60809
6.83085
6.9665
7.04865
7.08629
7.08367
7.04774
6.98878
6.9182
6.84425
6.77151
6.7033
6.64197
6.58124
6.52558
6.47317
6.42244
6.37505
6.3313
6.28864
6.25927
6.27022
6.49524
6.85527
7.21872
7.45315
7.57733
7.63199
7.6322
7.56285
7.41741
7.12903
1096.19
1025.68
6.20654
6.5975
6.81882
6.94736
7.02418
7.05925
7.05825
7.02726
6.97386
6.90654
6.83399
6.76369
6.69726
6.63605
6.58223
6.53012
6.48131
6.43582
6.39341
6.35027
6.30419
6.25379
6.22979
6.2609
6.53838
6.9596
7.28819
7.49939
7.60142
7.62034
7.56052
7.43098
7.14152
1096.34
1025.66
6.18937
6.58567
6.80803
6.93608
7.01122
7.04417
7.04113
7.01005
6.95967
6.89763
6.82985
6.76081
6.69386
6.6313
6.57428
6.5233
6.47808
6.4371
6.39763
6.35949
6.32294
6.28071
6.22599
6.19023
6.23976
6.55813
6.96923
7.30224
7.50128
7.56616
7.53374
7.42449
7.1738
1096.86
1025.66
6.18156
6.57394
6.79367
6.91931
6.99194
7.02216
7.01633
6.98211
6.92916
6.86641
6.80066
6.73587
6.67367
6.61476
6.55979
6.50926
6.4641
6.42489
6.3912
6.36089
6.32982
6.29176
6.24274
6.18794
6.1852
6.33937
6.68304
7.06498
7.36567
7.51462
7.53218
7.45473
7.24574
1097.05
1025.66
6.16303
6.55746
6.7816
6.90905
6.98177
7.01135
7.00403
6.96808
6.91252
6.8472
6.77981
6.71422
6.65258
6.59548
6.54371
6.4978
6.4564
6.41919
6.38726
6.3613
6.3334
6.30091
6.2609
6.21898
6.21184
6.34715
6.65667
7.01129
7.29285
7.46245
7.50207
7.44807
7.29306
1097.01
1025.65
6.1466
6.54269
6.76757
6.89425
6.96562
6.99324
6.9851
6.94705
6.88881
6.82145
6.75277
6.68703
6.62555
6.56839
6.51599
6.46888
6.42796
6.39393
6.36666
6.34533
6.32898
6.3075
6.28459
6.27042
6.2939
6.42343
6.67953
7.02044
7.28518
7.44494
7.48521
7.44149
7.26917
1096.65
1025.61
6.12225
6.52601
6.75446
6.88272
6.95502
6.98287
6.97368
6.93624
6.87846
6.81123
6.74223
6.67557
6.61326
6.55609
6.50467
6.45919
6.4198
6.3868
6.361
6.34266
6.3318
6.32741
6.32548
6.32907
6.37686
6.52127
6.75376
7.01522
7.26841
7.42281
7.45975
7.40117
7.16521
1096.27
1025.56
6.10526
6.51369
6.7407
6.86763
6.93946
6.96739
6.95809
6.91906
6.86106
6.79317
6.72334
6.65677
6.59531
6.53921
6.48904
6.44524
6.40821
6.37781
6.35337
6.33696
6.33401
6.34619
6.3608
6.36087
6.37124
6.49103
6.72299
6.98418
7.21955
7.35907
7.39046
7.32837
7.10422
1096.23
1025.48
6.0887
6.49951
6.72649
6.8538
6.92636
6.9557
6.94803
6.91073
6.85321
6.78525
6.71466
6.64679
6.58413
6.52685
6.47574
6.43154
6.3954
6.36611
6.34253
6.32848
6.33077
6.36294
6.42811
6.46893
6.43391
6.44624
6.61914
6.87375
7.14379
7.3282
7.37334
7.31346
7.09636
1096.38
1025.47
6.08804
6.49525
6.7125
6.83653
6.90756
6.93644
6.92955
6.89326
6.83668
6.76921
6.69862
6.63018
6.56682
6.50931
6.45787
6.41359
6.37787
6.34685
6.31997
6.30198
6.30172
6.3338
6.45027
6.62765
6.74482
6.69348
6.59042
6.68344
6.90023
7.13166
7.26553
7.26274
7.15222
1097.1
1025.51
6.09452
6.48828
6.7051
6.82551
6.89261
6.91771
6.90737
6.86831
6.80966
6.74085
6.66874
6.59822
6.53224
6.47183
6.41738
6.37045
6.32942
6.29212
6.26276
6.2461
6.25212
6.30663
6.46882
6.7298
7.00235
7.15828
7.13011
6.92899
6.88669
7.03856
7.20515
7.25683
7.21908
1097.47
1025.57
6.1061
6.48443
6.6928
6.8084
6.87171
6.89305
6.87966
6.83968
6.78263
6.71441
6.64192
6.57078
6.50382
6.44183
6.3849
6.33378
6.28739
6.24593
6.21332
6.19506
6.20426
6.28176
6.4934
6.82671
7.18835
7.4745
7.6009
7.48684
7.17167
7.06354
7.19926
7.27386
7.28356
1097.44
1025.62
6.11155
6.47918
6.68407
6.79637
6.85573
6.87227
6.85404
6.80909
6.74609
6.67505
6.60327
6.53424
6.46912
6.40833
6.35208
6.3006
6.25366
6.21237
6.17979
6.16122
6.17271
6.26586
6.51236
6.889
7.30231
7.63702
7.80361
7.7517
7.50086
7.27887
7.25224
7.27445
7.24211
1096.81
1025.63
6.09119
6.45758
6.66093
6.77376
6.83427
6.8523
6.83649
6.79539
6.73775
6.67072
6.59965
6.52996
6.46398
6.40268
6.34588
6.29283
6.2438
6.19906
6.1604
6.13098
6.12174
6.16488
6.34858
6.7332
7.19714
7.58262
7.79547
7.8156
7.64958
7.43626
7.31278
7.23415
7.08877
1096.33
1025.63
6.0777
6.44389
6.65027
6.76529
6.82751
6.84633
6.83087
6.79058
6.72938
6.65907
6.59027
6.51981
6.45242
6.38867
6.33038
6.27855
6.23161
6.18922
6.15271
6.12483
6.11263
6.13167
6.23514
6.49389
6.91741
7.38206
7.68878
7.79661
7.74539
7.57687
7.39469
7.22303
6.98526
1096.24
1025.6
6.05133
6.41909
6.62627
6.74264
6.80721
6.82957
6.8196
6.78426
6.72832
6.65752
6.58471
6.51358
6.44754
6.38796
6.33109
6.27755
6.22642
6.18109
6.14102
6.108
6.08756
6.09262
6.16212
6.34079
6.65788
7.09289
7.47556
7.68665
7.72221
7.61354
7.4246
7.23486
6.95614
1096.24
1025.56
6.02635
6.40052
6.6132
6.7334
6.80083
6.82473
6.81421
6.77815
6.7264
6.65672
6.58504
6.51552
6.44875
6.38705
6.32948
6.27585
6.22598
6.18057
6.14025
6.10604
6.08522
6.08811
6.14457
6.2915
6.54686
6.90177
7.25519
7.51753
7.63063
7.59056
7.45497
7.2471
6.97065
1096.28
1025.52
5.99568
6.37544
6.59126
6.71345
6.78326
6.81057
6.80401
6.77134
6.72382
6.65848
6.58788
6.51712
6.4495
6.38648
6.32835
6.27458
6.22491
6.17916
6.13814
6.10301
6.07422
6.06351
6.09676
6.2189
6.45494
6.76523
7.09557
7.37055
7.53005
7.54462
7.44077
7.26426
6.96394
1096.24
1025.45
5.96532
6.35518
6.57608
6.70202
6.77521
6.80547
6.80084
6.76912
6.72247
6.65904
6.58823
6.51762
6.44975
6.38493
6.32632
6.27265
6.22422
6.17868
6.13736
6.10106
6.07397
6.05589
6.05455
6.1067
6.27717
6.55432
6.88298
7.15834
7.3524
7.42573
7.39354
7.2565
6.97743
1096.22
1025.35
5.93366
6.3301
6.55406
6.68296
6.75947
6.7937
6.79186
6.76152
6.71105
6.65114
6.5874
6.517
6.45071
6.38915
6.33201
6.27921
6.23056
6.18607
6.14581
6.11009
6.07949
6.05688
6.0504
6.06509
6.12931
6.367
6.76788
7.11075
7.3275
7.40408
7.38069
7.24597
6.98256
1096.4
1025.34
5.92263
6.31262
6.53781
6.66909
6.74764
6.78493
6.78647
6.7597
6.71067
6.64859
6.58202
6.51724
6.45249
6.39117
6.33419
6.28172
6.23368
6.18996
6.15056
6.11575
6.08646
6.06518
6.05441
6.06071
6.06241
6.06909
6.15693
6.46599
6.88918
7.22394
7.32818
7.28241
7.13861
1097.36
1025.37
5.91969
6.30338
6.52678
6.65645
6.73285
6.76751
6.76653
6.73634
6.6855
6.62161
6.55138
6.48103
6.41509
6.35472
6.29934
6.24871
6.20289
6.16245
6.12611
6.09335
6.06713
6.05192
6.05904
6.106
6.21491
6.30681
6.29512
6.32607
6.56082
6.92684
7.19717
7.28922
7.27324
1097.87
1025.39
5.91029
6.28679
6.51013
6.64033
6.71657
6.75068
6.74882
6.7179
6.66646
6.60331
6.53498
6.46614
6.40007
6.33817
6.28047
6.22719
6.17931
6.13516
6.09318
6.05575
6.02558
6.00572
6.01189
6.06362
6.24199
6.47842
6.63014
6.61161
6.61395
6.9217
7.21095
7.3229
7.37779
1097.82
1025.42
5.9074
6.27573
6.49603
6.62468
6.69865
6.73017
6.72522
6.69075
6.63563
6.56848
6.49544
6.42252
6.35369
6.29029
6.23212
6.17861
6.12961
6.08482
6.04448
6.00957
5.98099
5.96098
5.96747
6.0567
6.28229
6.5795
6.81169
6.85949
6.8517
7.00376
7.24515
7.32456
7.31674
1096.9
1025.4
5.88587
6.25378
6.47385
6.60263
6.67821
6.71091
6.70669
6.67213
6.6148
6.54331
6.46841
6.39619
6.32946
6.26898
6.21398
6.16355
6.11733
6.07525
6.03766
6.00442
5.97593
5.9552
5.94804
5.99332
6.16446
6.47008
6.78918
6.95641
7.05077
7.15997
7.24922
7.27085
7.13895
1096.31
1025.37
5.87237
6.23693
6.45334
6.58044
6.65421
6.68546
6.67948
6.64327
6.58639
6.51827
6.4457
6.37439
6.30777
6.24702
6.19194
6.14215
6.09746
6.05793
6.02356
5.99508
5.97411
5.95515
5.94394
5.94856
6.02048
6.25151
6.5919
6.87105
7.0288
7.14672
7.21237
7.19321
7.03104
1096.26
1025.35
5.86043
6.21733
6.4291
6.55479
6.62894
6.66135
6.6572
6.6228
6.56666
6.49754
6.42406
6.35254
6.28677
6.22807
6.1758
6.12911
6.08731
6.05022
6.01861
5.9931
5.97373
5.95941
5.95043
5.95041
5.98145
6.10193
6.39832
6.73969
7.00296
7.14733
7.20858
7.18412
7.03169
1096.43
1025.36
5.85917
6.19937
6.40367
6.52585
6.59799
6.62924
6.62496
6.59116
6.53689
6.47131
6.40169
6.33368
6.27048
6.21326
6.16191
6.11621
6.07576
6.04046
6.01139
5.99092
5.97828
5.97079
5.97155
5.98897
6.01325
6.01711
6.09009
6.33496
6.67129
6.97553
7.12734
7.15893
7.08046
1097.32
1025.42
5.86339
6.18791
6.38236
6.49856
6.56658
6.59491
6.58863
6.55297
6.4975
6.43174
6.36254
6.29495
6.23195
6.17487
6.12356
6.07775
6.03719
6.00194
5.97328
5.95239
5.93812
5.93574
5.95734
6.01049
6.11634
6.22419
6.27934
6.37217
6.63866
6.9615
7.14285
7.17597
7.212
1097.63
1025.49
5.85851
6.16531
6.352
6.46277
6.52724
6.55378
6.54734
6.51403
6.46291
6.40036
6.33249
6.26475
6.20067
6.1434
6.09221
6.04687
6.00713
5.97299
5.94544
5.92585
5.91599
5.92154
5.95649
6.03794
6.18965
6.38609
6.53282
6.62452
6.7865
7.00729
7.16613
7.23387
7.23493
1097.33
1025.51
5.84261
6.14113
6.32339
6.43073
6.49204
6.51524
6.50562
6.46881
6.41226
6.34517
6.2758
6.20943
6.14882
6.09321
6.04479
6.00237
5.9655
5.93442
5.91034
5.89531
5.89397
5.91667
5.98973
6.11217
6.28742
6.51922
6.73775
6.89762
7.03416
7.17771
7.24381
7.22716
7.12794
1096.41
1025.47
5.79624
6.09828
6.28098
6.38705
6.44804
6.47242
6.46618
6.43532
6.38764
6.32999
6.26781
6.20537
6.14543
6.08983
6.03997
5.99593
5.95772
5.92548
5.89977
5.88168
5.87546
5.88407
5.93132
6.0648
6.26095
6.47775
6.69831
6.89989
7.10307
7.22494
7.23987
7.17309
6.96343
1096.04
1025.39
5.75266
6.05992
6.24351
6.34996
6.41172
6.43714
6.43183
6.40081
6.35169
6.29241
6.22988
6.16916
6.11276
6.06105
6.01444
5.97391
5.93932
5.91099
5.88999
5.87778
5.87131
5.87506
5.89706
5.94502
6.09593
6.3242
6.58254
6.80463
7.01356
7.1481
7.1751
7.12481
6.91807
1096.03
1025.28
5.70978
6.01747
6.1983
6.30419
6.36678
6.39469
6.39266
6.36631
6.32287
6.2697
6.2127
6.15609
6.1027
6.05375
6.00957
5.97017
5.93611
5.9087
5.88852
5.87507
5.86775
5.86852
5.88145
5.91562
5.97583
6.15138
6.46184
6.74835
6.95016
7.11223
7.16406
7.11888
6.92322
1096.39
1025.25
5.68779
5.97991
6.15525
6.26144
6.32603
6.35674
6.35712
6.33266
6.29039
6.23782
6.18143
6.12627
6.07513
6.02898
5.98818
5.9528
5.92305
5.90002
5.88526
5.87608
5.87044
5.87276
5.8871
5.91768
5.93896
5.93865
5.98301
6.19779
6.56018
6.89892
7.08112
7.10375
7.0475
1097.43
1025.28
5.67626
5.94663
6.11398
6.21797
6.28206
6.31259
6.31278
6.28804
6.24539
6.19262
6.13632
6.08134
6.0307
5.98549
5.94563
5.91104
5.88214
5.8611
5.84642
5.83558
5.83221
5.83943
5.87643
5.96085
6.09986
6.22816
6.24205
6.2398
6.3475
6.67845
6.9705
7.12446
7.17473
1098.03
1025.33
5.65882
5.90301
6.06401
6.16875
6.23534
6.26868
6.2706
6.24752
6.20464
6.15095
6.0937
6.03819
5.9873
5.94214
5.90273
5.86878