/*--------------------------------*- C++ -*----------------------------------*\
| =========                 |                                                 |
| \\      /  F ield         | OpenFOAM: The Open Source CFD Toolbox           |
|  \\    /   O peration     | Version:  2.0.x                                 |
|   \\  /    A nd           | Web:      www.OpenFOAM.org                      |
|    \\/     M anipulation  |                                                 |
\*---------------------------------------------------------------------------*/
FoamFile
{
    version     2.0;
    format      ascii;
    class       surfaceScalarField;
    location    "150";
    object      phi;
}
// * * * * * * * * * * * * * * * * * * * * * * * * * * * * * * * * * * * * * //

dimensions      [1 0 -1 0 0 0 0];

internalField   nonuniform List<scalar> 
228225
(
-6.62502e-07
-3.66072e-08
1.01079e-08
3.94884e-07
-1.09653e-06
3.90533e-08
2.77725e-06
-2.45375e-06
7.12773e-08
6.27922e-06
-3.60343e-06
1.01344e-07
1.05257e-05
-4.37908e-06
1.32513e-07
1.5322e-05
-4.94793e-06
1.51523e-07
2.01002e-05
-4.95585e-06
1.77583e-07
2.48724e-05
-4.97137e-06
1.99195e-07
2.92748e-05
-4.61909e-06
2.1668e-07
3.31716e-05
-4.11945e-06
2.22595e-07
3.64832e-05
-3.53793e-06
2.26336e-07
3.91831e-05
-2.91675e-06
2.16803e-07
4.12826e-05
-2.29649e-06
1.9696e-07
4.27619e-05
-1.65415e-06
1.74835e-07
4.37331e-05
-1.12019e-06
1.48935e-07
4.40933e-05
-4.81587e-07
1.21327e-07
4.4066e-05
-6.54919e-08
9.27956e-08
4.3603e-05
3.98224e-07
6.47283e-08
4.26919e-05
8.74537e-07
3.64509e-08
4.14664e-05
1.21535e-06
1.00983e-08
3.99747e-05
1.50662e-06
-1.49229e-08
3.82291e-05
1.78405e-06
-3.86228e-08
3.63002e-05
1.99031e-06
-6.14419e-08
3.41564e-05
2.22704e-06
-8.33861e-08
3.18291e-05
2.43264e-06
-1.05465e-07
2.93533e-05
2.60366e-06
-1.28008e-07
2.66749e-05
2.82864e-06
-1.50411e-07
2.38543e-05
3.0017e-06
-1.81316e-07
2.09172e-05
3.1637e-06
-2.268e-07
1.78858e-05
3.31337e-06
-2.82246e-07
1.4786e-05
3.45003e-06
-3.50589e-07
1.16141e-05
3.60594e-06
-4.34404e-07
8.15581e-06
3.99776e-06
-5.39919e-07
4.04789e-06
4.67703e-06
-5.69607e-07
4.39498e-06
-3.4711e-07
1.36316e-06
-1.44952e-06
4.9134e-08
4.78487e-06
-4.63872e-06
1.19672e-07
9.25391e-06
-7.107e-06
1.8349e-07
1.38982e-05
-8.49732e-06
2.48982e-07
1.82316e-05
-9.01838e-06
3.05483e-07
2.20678e-05
-9.15532e-06
3.70792e-07
2.54096e-05
-8.70332e-06
4.05437e-07
2.80066e-05
-7.99402e-06
4.25341e-07
2.99687e-05
-7.01629e-06
4.34833e-07
3.13032e-05
-5.89818e-06
4.43919e-07
3.20632e-05
-4.74379e-06
4.4569e-07
3.23147e-05
-3.62109e-06
4.52544e-07
3.21561e-05
-2.59985e-06
4.61676e-07
3.17043e-05
-1.66851e-06
4.65871e-07
3.09575e-05
-8.40067e-07
4.66412e-07
3.01368e-05
-1.26157e-07
4.65035e-07
2.9178e-05
4.32743e-07
4.60271e-07
2.8143e-05
9.80404e-07
4.52462e-07
2.70412e-05
1.54369e-06
4.32483e-07
2.58944e-05
1.96095e-06
4.00945e-07
2.47083e-05
2.32482e-06
3.67618e-07
2.34695e-05
2.68688e-06
3.35731e-07
2.21621e-05
2.99263e-06
3.04865e-07
2.0792e-05
3.33116e-06
2.65594e-07
1.93678e-05
3.63431e-06
2.2208e-07
1.79015e-05
3.89535e-06
1.74207e-07
1.64729e-05
4.13507e-06
1.21668e-07
1.49403e-05
4.45245e-06
8.13406e-08
1.32819e-05
4.78275e-06
3.87552e-08
1.14828e-05
5.12885e-06
-1.6939e-08
9.52365e-06
5.50064e-06
-9.21121e-08
7.31213e-06
6.01121e-06
-1.94407e-07
4.72243e-06
6.90747e-06
-3.20791e-07
1.90482e-06
7.8693e-06
-3.75533e-07
6.50883e-06
-2.09057e-07
1.46646e-06
-2.96848e-06
5.19984e-08
4.23422e-06
-7.55123e-06
1.44287e-07
6.91659e-06
-1.00183e-05
2.28494e-07
9.00719e-06
-1.08886e-05
3.00455e-07
1.0531e-05
-1.08749e-05
3.32469e-07
1.14642e-05
-1.04461e-05
3.57447e-07
1.20058e-05
-9.63045e-06
3.85283e-07
1.20962e-05
-8.50381e-06
4.19117e-07
1.19036e-05
-7.26838e-06
4.44486e-07
1.14705e-05
-5.9243e-06
4.58975e-07
1.08399e-05
-4.57602e-06
4.62561e-07
1.00656e-05
-3.30106e-06
4.53924e-07
9.19712e-06
-2.16736e-06
4.35634e-07
8.32669e-06
-1.21117e-06
4.12709e-07
7.52832e-06
-4.30105e-07
3.8808e-07
6.84741e-06
1.91279e-07
3.63196e-07
6.32881e-06
6.06377e-07
3.44674e-07
5.969e-06
1.00744e-06
3.32461e-07
5.80965e-06
1.3801e-06
3.22642e-07
5.72398e-06
1.73325e-06
3.13062e-07
5.66472e-06
2.08144e-06
3.02313e-07
5.62634e-06
2.43534e-06
2.89595e-07
5.54624e-06
2.79859e-06
2.73792e-07
5.4567e-06
3.16792e-06
2.5242e-07
5.33557e-06
3.53217e-06
2.22908e-07
5.16417e-06
3.88386e-06
1.82521e-07
4.95006e-06
4.22055e-06
1.2823e-07
4.72361e-06
4.61131e-06
6.7132e-08
4.46363e-06
5.03086e-06
1.1351e-08
4.1231e-06
5.51835e-06
-4.95231e-08
3.59577e-06
6.1481e-06
-1.20704e-07
2.71011e-06
7.10599e-06
-2.09674e-07
1.45456e-06
8.45875e-06
-2.96368e-07
3.25353e-07
9.30103e-06
-3.03309e-07
6.98145e-06
-1.47294e-07
9.22128e-07
-3.94846e-06
5.70509e-08
2.1456e-06
-8.934e-06
1.587e-07
2.97989e-06
-1.10938e-05
2.40808e-07
3.41708e-06
-1.16291e-05
3.02931e-07
3.71004e-06
-1.15114e-05
3.43227e-07
3.85132e-06
-1.09616e-05
3.73954e-07
3.86579e-06
-1.00413e-05
3.96041e-07
3.78647e-06
-8.83612e-06
4.11296e-07
3.53316e-06
-7.44297e-06
4.27535e-07
3.15632e-06
-5.98677e-06
4.38888e-07
2.68311e-06
-4.54493e-06
4.41672e-07
2.15804e-06
-3.20753e-06
4.31061e-07
1.62205e-06
-2.03733e-06
4.0545e-07
1.1165e-06
-1.07519e-06
3.69059e-07
6.9237e-07
-3.33017e-07
3.2655e-07
3.88862e-07
2.10773e-07
2.83555e-07
1.44705e-07
6.05434e-07
2.44661e-07
1.22114e-08
9.28382e-07
2.11124e-07
-9.65891e-09
1.22017e-06
1.81364e-07
6.21145e-08
1.50519e-06
1.55852e-07
2.12018e-07
1.79696e-06
1.34139e-07
4.2595e-07
2.10397e-06
1.16976e-07
6.86248e-07
2.43078e-06
1.07049e-07
9.83427e-07
2.77199e-06
9.82721e-08
1.29915e-06
3.12664e-06
8.92846e-08
1.60058e-06
3.50382e-06
7.80783e-08
1.83115e-06
3.92693e-06
6.25148e-08
2.0326e-06
4.3802e-06
2.90959e-08
2.18515e-06
4.89509e-06
-1.74038e-08
2.22962e-06
5.55246e-06
-7.92897e-08
2.04796e-06
6.48516e-06
-1.56157e-07
1.51008e-06
7.87274e-06
-2.29579e-07
7.45945e-07
9.51179e-06
-2.89699e-07
1.10422e-07
1.02071e-05
-2.7153e-07
7.21269e-06
-1.20846e-07
4.87835e-07
-4.48615e-06
4.92365e-08
1.03587e-06
-9.63267e-06
1.50202e-07
1.44233e-06
-1.17297e-05
2.29122e-07
1.7246e-06
-1.21956e-05
2.84011e-07
1.89389e-06
-1.20008e-05
3.19902e-07
1.94249e-06
-1.13621e-05
3.51616e-07
1.85917e-06
-1.03408e-05
3.82565e-07
1.66425e-06
-9.05375e-06
4.12209e-07
1.40333e-06
-7.62055e-06
4.38162e-07
1.12404e-06
-6.16728e-06
4.59416e-07
8.70265e-07
-4.76466e-06
4.7307e-07
6.57675e-07
-3.47085e-06
4.75433e-07
4.83844e-07
-2.32706e-06
4.63051e-07
3.31402e-07
-1.35765e-06
4.34365e-07
1.77216e-07
-5.71872e-07
3.92493e-07
4.5977e-09
4.11424e-08
3.41727e-07
-1.78598e-07
5.00265e-07
2.87873e-07
-3.53731e-07
8.69453e-07
2.3359e-07
-5.01118e-07
1.18572e-06
1.81376e-07
-5.99363e-07
1.47051e-06
1.32459e-07
-6.35115e-07
1.74497e-06
8.72768e-08
-5.9563e-07
2.02223e-06
4.17847e-08
-4.61394e-07
2.30671e-06
-1.06543e-08
-2.42242e-07
2.60421e-06
-5.18755e-08
4.51088e-08
2.92222e-06
-8.34331e-08
3.8291e-07
3.27298e-06
-1.07492e-07
7.61634e-07
3.67559e-06
-1.27951e-07
1.13102e-06
4.15998e-06
-1.49777e-07
1.42278e-06
4.77794e-06
-1.7521e-07
1.5456e-06
5.63371e-06
-2.04719e-07
1.38548e-06
6.89295e-06
-2.48348e-07
9.31843e-07
8.6239e-06
-2.98109e-07
3.81562e-07
1.03823e-05
-3.20906e-07
-2.41238e-08
1.08843e-05
-2.72354e-07
7.30435e-06
-1.15815e-07
7.90849e-08
-4.63126e-06
6.57091e-08
9.00654e-08
-9.82758e-06
1.83707e-07
5.8918e-09
-1.1911e-05
2.65347e-07
-1.10008e-07
-1.2396e-05
3.16136e-07
-2.41225e-07
-1.22182e-05
3.48375e-07
-3.74986e-07
-1.16014e-05
3.7288e-07
-5.02414e-07
-1.06079e-05
3.94312e-07
-6.26231e-07
-9.3455e-06
4.15338e-07
-7.39021e-07
-7.94516e-06
4.37144e-07
-8.39655e-07
-6.52571e-06
4.58802e-07
-8.9673e-07
-5.1868e-06
4.7892e-07
-8.95721e-07
-3.9671e-06
4.949e-07
-8.34534e-07
-2.89182e-06
5.0319e-07
-7.19419e-07
-1.97378e-06
5.00586e-07
-5.62877e-07
-1.21447e-06
4.85596e-07
-3.85757e-07
-5.9609e-07
4.5964e-07
-2.23146e-07
-8.57454e-08
4.22911e-07
-9.34688e-08
3.63218e-07
3.76055e-07
1.57016e-08
7.56071e-07
3.19968e-07
1.03613e-07
1.12057e-06
2.61515e-07
1.79963e-07
1.46476e-06
2.0334e-07
2.58607e-07
1.79715e-06
1.45892e-07
3.48262e-07
2.12371e-06
9.27698e-08
4.58653e-07
2.45667e-06
3.65625e-08
5.9641e-07
2.80564e-06
-2.17739e-08
7.67795e-07
3.18371e-06
-8.2755e-08
9.61735e-07
3.61145e-06
-1.30518e-07
1.1438e-06
4.14881e-06
-1.71682e-07
1.26929e-06
4.85813e-06
-2.06499e-07
1.28921e-06
5.85959e-06
-2.46601e-07
1.14158e-06
7.32893e-06
-2.89108e-07
8.04476e-07
9.28678e-06
-3.26424e-07
3.96069e-07
1.11211e-05
-3.31145e-07
6.76667e-08
1.14789e-05
-2.67186e-07
7.48244e-06
-1.10453e-07
7.33121e-09
-4.70277e-06
6.39524e-08
-2.83251e-08
-9.95846e-06
1.66382e-07
-8.9756e-08
-1.2088e-05
2.38239e-07
-1.74956e-07
-1.25985e-05
2.87543e-07
-2.69693e-07
-1.2447e-05
3.23497e-07
-3.58492e-07
-1.18682e-05
3.55446e-07
-4.2751e-07
-1.09255e-05
3.86452e-07
-4.732e-07
-9.7169e-06
4.16921e-07
-4.90906e-07
-8.37355e-06
4.45888e-07
-4.80411e-07
-7.00932e-06
4.72878e-07
-4.57801e-07
-5.70729e-06
4.97617e-07
-4.23362e-07
-4.52172e-06
5.19885e-07
-3.71954e-07
-3.48247e-06
5.389e-07
-2.96245e-07
-2.60311e-06
5.53249e-07
-1.86592e-07
-1.88581e-06
5.61286e-07
-2.49701e-08
-1.31971e-06
5.6156e-07
1.95243e-07
-8.62307e-07
5.55887e-07
4.71389e-07
-4.56977e-07
5.43556e-07
7.89941e-07
-8.62008e-08
5.23173e-07
1.12754e-06
2.89963e-07
4.92419e-07
1.46414e-06
6.79302e-07
4.48224e-07
1.79173e-06
1.07441e-06
3.94488e-07
2.06495e-06
1.51729e-06
3.32503e-07
2.27424e-06
1.98223e-06
2.64433e-07
2.40828e-06
2.47447e-06
1.96385e-07
2.46128e-06
3.00055e-06
1.29382e-07
2.4442e-06
3.5742e-06
5.3578e-08
2.39443e-06
4.23505e-06
-3.72098e-08
2.2905e-06
5.09409e-06
-1.32828e-07
2.09798e-06
6.27182e-06
-2.20557e-07
1.77495e-06
7.93559e-06
-2.84437e-07
1.28091e-06
1.00989e-05
-3.18749e-07
7.13395e-07
1.19971e-05
-3.09261e-07
2.15802e-07
1.22119e-05
-2.36469e-07
7.78892e-06
-9.07075e-08
-1.11992e-08
-4.76118e-06
6.94993e-08
-6.33528e-08
-1.00842e-05
1.77754e-07
-1.48951e-07
-1.22514e-05
2.48921e-07
-2.57522e-07
-1.27813e-05
2.91307e-07
-3.77128e-07
-1.26466e-05
3.19107e-07
-4.97757e-07
-1.20907e-05
3.42979e-07
-6.0921e-07
-1.11807e-05
3.66503e-07
-7.01881e-07
-1.00154e-05
3.91013e-07
-7.69049e-07
-8.72293e-06
4.16396e-07
-8.01931e-07
-7.41879e-06
4.42174e-07
-7.93541e-07
-6.18358e-06
4.67683e-07
-7.42272e-07
-5.06544e-06
4.92205e-07
-6.51175e-07
-4.08886e-06
5.15024e-07
-5.27459e-07
-3.2625e-06
5.35369e-07
-3.81324e-07
-2.58474e-06
5.52466e-07
-2.19829e-07
-2.04724e-06
5.65699e-07
-2.40742e-08
-1.6331e-06
5.74668e-07
2.33848e-07
-1.29725e-06
5.81942e-07
5.71204e-07
-1.01135e-06
5.87332e-07
9.94415e-07
-7.23582e-07
5.89822e-07
1.49292e-06
-4.07335e-07
5.87569e-07
2.04156e-06
-5.23474e-08
5.77475e-07
2.59946e-06
4.03436e-07
5.55223e-07
3.13641e-06
9.29491e-07
5.15012e-07
3.58459e-06
1.57522e-06
4.50271e-07
3.88874e-06
2.33036e-06
3.65294e-07
4.01047e-06
3.19471e-06
2.56942e-07
3.91328e-06
4.18238e-06
1.4899e-07
3.61368e-06
5.38046e-06
1.24073e-08
3.07361e-06
6.93469e-06
-1.23585e-07
2.31129e-06
8.94178e-06
-2.44586e-07
1.45937e-06
1.12647e-05
-3.14468e-07
7.18831e-07
1.30507e-05
-3.13718e-07
1.77726e-07
1.29897e-05
-2.37657e-07
8.05649e-06
-8.98771e-08
-4.59601e-08
-4.7898e-06
7.4486e-08
-1.34288e-07
-1.01781e-05
1.82161e-07
-2.34712e-07
-1.24014e-05
2.50433e-07
-3.44649e-07
-1.29615e-05
2.90112e-07
-4.57866e-07
-1.28493e-05
3.15866e-07
-5.65734e-07
-1.23204e-05
3.37582e-07
-6.58493e-07
-1.14474e-05
3.59388e-07
-7.28233e-07
-1.03279e-05
3.82156e-07
-7.6932e-07
-9.08715e-06
4.05174e-07
-7.77491e-07
-7.83859e-06
4.27812e-07
-7.49145e-07
-6.6618e-06
4.4969e-07
-6.8168e-07
-5.60371e-06
4.70594e-07
-5.74612e-07
-4.68652e-06
4.9035e-07
-4.31473e-07
-3.91467e-06
5.08759e-07
-2.62635e-07
-3.27949e-06
5.25618e-07
-8.71152e-08
-2.76385e-06
5.40765e-07
7.32758e-08
-2.34789e-06
5.5406e-07
2.23419e-07
-2.01316e-06
5.65405e-07
3.78889e-07
-1.74257e-06
5.7535e-07
5.67945e-07
-1.49865e-06
5.85559e-07
8.28775e-07
-1.26394e-06
5.95229e-07
1.15567e-06
-9.84127e-07
6.04245e-07
1.56473e-06
-6.1852e-07
6.12152e-07
2.01756e-06
-1.41096e-07
6.16867e-07
2.4566e-06
5.23258e-07
6.11892e-07
2.83099e-06
1.37209e-06
5.82814e-07
3.02326e-06
2.48031e-06
5.21146e-07
2.96031e-06
3.83049e-06
4.13766e-07
2.62831e-06
5.42373e-06
2.87605e-07
2.07543e-06
7.36793e-06
1.18655e-07
1.35695e-06
9.72342e-06
-6.40221e-08
6.7694e-07
1.21582e-05
-2.14181e-07
2.21224e-07
1.37741e-05
-2.68501e-07
-2.24922e-08
1.34513e-05
-2.1903e-07
8.11862e-06
-8.46587e-08
-7.26401e-08
-4.79734e-06
8.02063e-08
-1.85901e-07
-1.02547e-05
1.89876e-07
-3.04544e-07
-1.25411e-05
2.58352e-07
-4.21556e-07
-1.31418e-05
2.973e-07
-5.33108e-07
-1.30587e-05
3.20957e-07
-6.25998e-07
-1.25669e-05
3.39308e-07
-6.87514e-07
-1.17427e-05
3.56859e-07
-7.13268e-07
-1.06775e-05
3.75269e-07
-7.07309e-07
-9.48759e-06
3.94436e-07
-6.75448e-07
-8.28433e-06
4.13807e-07
-6.21264e-07
-7.14881e-06
4.32743e-07
-5.46131e-07
-6.12967e-06
4.50711e-07
-4.49738e-07
-5.25043e-06
4.67377e-07
-3.30969e-07
-4.51621e-06
4.82611e-07
-1.893e-07
-3.91785e-06
4.96515e-07
-2.83232e-08
-3.43445e-06
5.09424e-07
1.39982e-07
-3.03821e-06
5.21793e-07
2.94386e-07
-2.70167e-06
5.33867e-07
4.10221e-07
-2.40396e-06
5.45287e-07
4.85803e-07
-2.132e-06
5.57469e-07
5.27086e-07
-1.87608e-06
5.7051e-07
5.55055e-07
-1.59793e-06
5.85419e-07
6.11675e-07
-1.27815e-06
6.0249e-07
6.9313e-07
-8.44247e-07
6.2106e-07
8.10687e-07
-2.34645e-07
6.39604e-07
9.36776e-07
5.90877e-07
6.54293e-07
1.15928e-06
1.60333e-06
6.53624e-07
1.3318e-06
3.0413e-06
6.15944e-07
1.39316e-06
4.84276e-06
5.18845e-07
1.31589e-06
7.06524e-06
3.79101e-07
1.09076e-06
9.7452e-06
2.02668e-07
8.08557e-07
1.24196e-05
2.02874e-08
5.40567e-07
1.41289e-05
-8.73614e-08
2.52093e-07
1.3832e-05
-9.29156e-08
8.39978e-06
-2.90921e-08
-5.37428e-08
-4.82191e-06
7.84608e-08
-9.98814e-08
-1.0393e-05
1.84618e-07
-1.32122e-07
-1.27595e-05
2.50732e-07
-1.55913e-07
-1.34051e-05
2.87172e-07
-1.74742e-07
-1.33489e-05
3.09049e-07
-1.80522e-07
-1.28874e-05
3.26323e-07
-1.66173e-07
-1.21002e-05
3.43127e-07
-1.30007e-07
-1.10742e-05
3.60657e-07
-7.35258e-08
-9.92251e-06
3.78474e-07
1.18723e-09
-8.75495e-06
3.95943e-07
9.34159e-08
-7.65357e-06
4.12547e-07
2.03795e-07
-6.66798e-06
4.27929e-07
3.3332e-07
-5.82183e-06
4.4186e-07
4.82713e-07
-5.11989e-06
4.54257e-07
6.52411e-07
-4.55283e-06
4.65225e-07
8.42735e-07
-4.09998e-06
4.7513e-07
1.05302e-06
-3.73316e-06
4.84568e-07
1.27945e-06
-3.42239e-06
4.94152e-07
1.51276e-06
-3.14109e-06
5.03661e-07
1.73584e-06
-2.86848e-06
5.13195e-07
1.92462e-06
-2.58886e-06
5.23764e-07
2.07996e-06
-2.28961e-06
5.36027e-07
2.20939e-06
-1.95768e-06
5.4971e-07
2.33056e-06
-1.53223e-06
5.66286e-07
2.4712e-06
-9.6215e-07
5.86239e-07
2.59672e-06
-1.43107e-07
6.07776e-07
2.68422e-06
8.89113e-07
6.25903e-07
2.99395e-06
2.09283e-06
6.37808e-07
3.25277e-06
3.958e-06
6.25116e-07
3.30643e-06
6.45806e-06
5.52836e-07
3.10023e-06
9.53237e-06
4.18363e-07
2.59238e-06
1.26471e-05
2.7979e-07
1.70915e-06
1.48579e-05
1.53599e-07
7.18083e-07
1.47328e-05
8.93452e-08
9.06131e-06
5.65445e-08
4.80053e-09
-4.90459e-06
7.82572e-08
1.88121e-10
-1.0579e-05
1.90849e-07
-1.15106e-08
-1.30072e-05
2.5964e-07
-2.49972e-08
-1.36863e-05
2.94817e-07
-3.29337e-08
-1.36533e-05
3.12568e-07
-2.49439e-08
-1.32197e-05
3.24529e-07
8.32451e-09
-1.24689e-05
3.35641e-07
7.19096e-08
-1.14854e-05
3.47722e-07
1.66881e-07
-1.03781e-05
3.60817e-07
2.91006e-07
-9.25331e-06
3.74413e-07
4.42445e-07
-8.1927e-06
3.87859e-07
6.20457e-07
-7.2464e-06
4.00579e-07
8.24977e-07
-6.43838e-06
4.12189e-07
1.05575e-06
-5.77303e-06
4.22493e-07
1.31163e-06
-5.24008e-06
4.31486e-07
1.59153e-06
-4.81915e-06
4.3937e-07
1.89546e-06
-4.48358e-06
4.46556e-07
2.22436e-06
-4.20485e-06
4.53609e-07
2.57858e-06
-3.95636e-06
4.61083e-07
2.95946e-06
-3.7176e-06
4.6825e-07
3.36856e-06
-3.47305e-06
4.75077e-07
3.80386e-06
-3.20657e-06
4.81633e-07
4.25145e-06
-2.89451e-06
4.89176e-07
4.71949e-06
-2.49744e-06
4.97095e-07
5.20754e-06
-1.9552e-06
5.04901e-07
5.67515e-06
-1.12465e-06
5.13832e-07
5.86056e-06
1.81998e-07
5.21611e-07
6.02705e-06
1.3951e-06
5.31174e-07
5.87373e-06
3.57835e-06
5.32916e-07
5.33786e-06
6.4816e-06
5.12284e-07
4.39845e-06
1.00238e-05
4.47975e-07
3.05757e-06
1.36388e-05
3.4912e-07
1.63534e-06
1.60386e-05
2.4159e-07
4.68513e-07
1.57457e-05
1.53941e-07
9.4571e-06
7.27265e-08
5.66601e-09
-4.98921e-06
7.95382e-08
-7.3821e-10
-1.07686e-05
1.9647e-07
9.06204e-10
-1.32746e-05
2.65995e-07
1.3616e-08
-1.39996e-05
3.00885e-07
3.90854e-08
-1.39978e-05
3.1923e-07
8.46978e-08
-1.35966e-05
3.31509e-07
1.56695e-07
-1.28827e-05
3.42096e-07
2.56553e-07
-1.19375e-05
3.52605e-07
3.8252e-07
-1.08669e-05
3.63188e-07
5.30883e-07
-9.77503e-06
3.73693e-07
6.9814e-07
-8.74349e-06
3.8388e-07
8.8224e-07
-7.82363e-06
3.93479e-07
1.08217e-06
-7.04024e-06
4.02266e-07
1.29709e-06
-6.39775e-06
4.10118e-07
1.52588e-06
-5.88562e-06
4.17044e-07
1.76722e-06
-5.48345e-06
4.23212e-07
2.02089e-06
-5.16602e-06
4.29014e-07
2.2886e-06
-4.90726e-06
4.34916e-07
2.57176e-06
-4.68062e-06
4.41292e-07
2.87071e-06
-4.46481e-06
4.48428e-07
3.18804e-06
-4.24557e-06
4.55343e-07
3.52941e-06
-4.00993e-06
4.62108e-07
3.90393e-06
-3.73749e-06
4.68563e-07
4.31571e-06
-3.38303e-06
4.73893e-07
4.74032e-06
-2.85795e-06
4.78229e-07
5.1543e-06
-2.0183e-06
4.79736e-07
5.4618e-06
-6.02852e-07
4.77379e-07
5.24579e-06
1.13878e-06
4.72315e-07
4.67618e-06
3.68535e-06
4.62556e-07
3.65408e-06
7.06415e-06
4.39485e-07
2.37052e-06
1.09253e-05
3.81986e-07
1.07724e-06
1.46371e-05
2.94892e-07
2.39216e-07
1.66736e-05
2.02893e-07
-1.36048e-07
1.59983e-05
1.22534e-07
9.2775e-06
4.35794e-08
3.74663e-09
-5.07273e-06
8.07013e-08
-8.66472e-09
-1.09576e-05
2.0205e-07
-9.34113e-09
-1.35442e-05
2.70835e-07
3.47481e-09
-1.43147e-05
3.0273e-07
2.61928e-08
-1.43386e-05
3.18523e-07
6.15324e-08
-1.39606e-05
3.29105e-07
1.1269e-07
-1.3272e-05
3.38556e-07
1.8205e-07
-1.23545e-05
3.48105e-07
2.70585e-07
-1.13126e-05
3.57672e-07
3.7775e-07
-1.02487e-05
3.67034e-07
5.00601e-07
-9.24181e-06
3.76063e-07
6.36144e-07
-8.34319e-06
3.84616e-07
7.81107e-07
-7.57719e-06
3.92583e-07
9.32183e-07
-6.94813e-06
3.99876e-07
1.08579e-06
-6.44517e-06
4.06496e-07
1.23791e-06
-6.04766e-06
4.12622e-07
1.38454e-06
-5.73079e-06
4.18642e-07
1.52271e-06
-5.46989e-06
4.24956e-07
1.65148e-06
-5.24087e-06
4.31985e-07
1.76978e-06
-5.02284e-06
4.40251e-07
1.87546e-06
-4.79963e-06
4.48912e-07
1.96372e-06
-4.55569e-06
4.58062e-07
2.02834e-06
-4.26927e-06
4.67794e-07
2.06443e-06
-3.89699e-06
4.78629e-07
2.07261e-06
-3.35437e-06
4.89257e-07
2.05809e-06
-2.50147e-06
4.99111e-07
2.0959e-06
-1.14192e-06
5.03003e-07
1.81582e-06
9.20306e-07
5.00331e-07
1.47907e-06
3.53826e-06
4.85663e-07
1.00342e-06
7.08636e-06
4.55255e-07
5.05487e-07
1.10322e-05
3.92566e-07
1.14235e-07
1.47366e-05
2.93074e-07
-8.48226e-08
1.66795e-05
1.94681e-07
-1.32027e-07
1.593e-05
1.17042e-07
9.09806e-06
4.74498e-08
-1.40087e-08
-5.14418e-06
8.66238e-08
-2.93309e-08
-1.11568e-05
2.15362e-07
-2.18969e-08
-1.38355e-05
2.84584e-07
6.38805e-09
-1.46582e-05
3.1578e-07
4.61763e-08
-1.47093e-05
3.31508e-07
9.8221e-08
-1.43543e-05
3.42247e-07
1.64349e-07
-1.36891e-05
3.5165e-07
2.45948e-07
-1.2796e-05
3.60571e-07
3.4352e-07
-1.17782e-05
3.68704e-07
4.56631e-07
-1.07368e-05
3.75779e-07
5.8325e-07
-9.74949e-06
3.81832e-07
7.20337e-07
-8.86662e-06
3.87136e-07
8.64324e-07
-8.11236e-06
3.91973e-07
1.01116e-06
-7.49074e-06
3.9655e-07
1.15674e-06
-6.99102e-06
4.01018e-07
1.29722e-06
-6.59297e-06
4.05538e-07
1.42875e-06
-6.27197e-06
4.10331e-07
1.54711e-06
-6.00319e-06
4.1561e-07
1.64935e-06
-5.764e-06
4.21542e-07
1.73293e-06
-5.53422e-06
4.28451e-07
1.79293e-06
-5.2957e-06
4.36737e-07
1.82164e-06
-5.02961e-06
4.45897e-07
1.8073e-06
-4.71046e-06
4.5627e-07
1.73778e-06
-4.29445e-06
4.67842e-07
1.60669e-06
-3.70253e-06
4.803e-07
1.41905e-06
-2.8064e-06
4.93953e-07
1.21787e-06
-1.44328e-06
5.04359e-07
9.59723e-07
6.67961e-07
5.12381e-07
1.02575e-06
2.96153e-06
5.1227e-07
1.13768e-06
6.48201e-06
4.93675e-07
1.08482e-06
1.06431e-05
4.43073e-07
8.29516e-07
1.4637e-05
3.55842e-07
5.7861e-07
1.66785e-05
2.52908e-07
2.90653e-07
1.60556e-05
1.63708e-07
9.32357e-06
6.52599e-08
1.33695e-08
-5.24593e-06
8.98963e-08
1.97572e-08
-1.13815e-05
2.19331e-07
4.76523e-08
-1.41461e-05
2.83546e-07
9.83246e-08
-1.50195e-05
3.1135e-07
1.59997e-07
-1.50966e-05
3.2624e-07
2.29423e-07
-1.47607e-05
3.37671e-07
3.07089e-07
-1.41146e-05
3.48565e-07
3.95083e-07
-1.32427e-05
3.59518e-07
4.96481e-07
-1.22484e-05
3.6977e-07
6.14707e-07
-1.12325e-05
3.78498e-07
7.52235e-07
-1.02713e-05
3.85334e-07
9.08784e-07
-9.41251e-06
3.90435e-07
1.08255e-06
-8.67929e-06
3.94284e-07
1.27021e-06
-8.0747e-06
3.9744e-07
1.46756e-06
-7.58762e-06
4.00373e-07
1.67056e-06
-7.19828e-06
4.03442e-07
1.87609e-06
-6.8833e-06
4.06931e-07
2.08222e-06
-6.61917e-06
4.11019e-07
2.2875e-06
-6.3839e-06
4.15818e-07
2.49038e-06
-6.15724e-06
4.21424e-07
2.68869e-06
-5.92061e-06
4.27975e-07
2.87995e-06
-5.65517e-06
4.35832e-07
3.06297e-06
-5.33623e-06
4.44526e-07
3.2365e-06
-4.91979e-06
4.5396e-07
3.39339e-06
-4.31943e-06
4.62821e-07
3.49929e-06
-3.37868e-06
4.70258e-07
3.46653e-06
-1.8776e-06
4.71904e-07
3.25095e-06
4.18313e-07
4.70209e-07
3.23319e-06
2.51105e-06
4.73242e-07
3.07749e-06
6.17368e-06
4.69492e-07
2.70963e-06
1.05741e-05
4.41211e-07
2.17264e-06
1.47792e-05
3.97221e-07
1.36456e-06
1.71702e-05
3.19263e-07
5.62428e-07
1.66382e-05
2.2352e-07
9.80261e-06
8.34826e-08
2.78946e-08
-5.37075e-06
9.83947e-08
2.29571e-08
-1.16071e-05
2.31584e-07
3.90865e-08
-1.44509e-05
2.89492e-07
8.47664e-08
-1.53782e-05
3.13783e-07
1.45739e-07
-1.54852e-05
3.28388e-07
2.18051e-07
-1.51728e-05
3.40568e-07
3.02573e-07
-1.45507e-05
3.52367e-07
4.01378e-07
-1.37049e-05
3.64299e-07
5.17163e-07
-1.2739e-05
3.75688e-07
6.53236e-07
-1.17531e-05
3.85524e-07
8.11976e-07
-1.08222e-05
3.93203e-07
9.93926e-07
-9.99202e-06
3.98643e-07
1.19819e-06
-9.28472e-06
4.0226e-07
1.4228e-06
-8.70296e-06
4.04733e-07
1.66511e-06
-8.23561e-06
4.06746e-07
1.92248e-06
-7.86346e-06
4.08863e-07
2.19296e-06
-7.56424e-06
4.11516e-07
2.47598e-06
-7.31606e-06
4.14932e-07
2.77229e-06
-7.09845e-06
4.1931e-07
3.08336e-06
-6.89202e-06
4.24832e-07
3.41059e-06
-6.67829e-06
4.31604e-07
3.75642e-06
-6.43937e-06
4.39597e-07
4.12711e-06
-6.15404e-06
4.48478e-07
4.53303e-06
-5.7819e-06
4.57794e-07
4.97141e-06
-5.22225e-06
4.66508e-07
5.36099e-06
-4.23402e-06
4.68625e-07
5.528e-06
-2.49762e-06
4.56465e-07
5.36421e-06
1.57543e-07
4.28253e-07
4.72096e-06
2.74771e-06
4.10827e-07
3.76144e-06
6.74197e-06
3.94908e-07
2.68335e-06
1.12562e-05
3.98282e-07
1.58575e-06
1.55005e-05
3.78124e-07
7.36953e-07
1.77201e-05
3.01713e-07
1.72395e-07
1.70153e-05
1.91227e-07
9.9292e-06
4.59851e-08
-2.7934e-08
-5.4522e-06
1.10603e-07
-1.08115e-07
-1.17612e-05
2.351e-07
-1.43235e-07
-1.46941e-05
2.79115e-07
-1.28983e-07
-1.56898e-05
2.97966e-07
-9.2137e-08
-1.58352e-05
3.13749e-07
-4.05171e-08
-1.55531e-05
3.29392e-07
2.3957e-08
-1.49593e-05
3.44919e-07
1.01231e-07
-1.4142e-05
3.60653e-07
1.91719e-07
-1.32044e-05
3.75885e-07
2.95523e-07
-1.22454e-05
3.89512e-07
4.12489e-07
-1.13388e-05
4.00746e-07
5.42097e-07
-1.05297e-05
4.09286e-07
6.83267e-07
-9.84005e-06
4.15383e-07
8.35246e-07
-9.27339e-06
4.19712e-07
9.97468e-07
-8.81967e-06
4.23123e-07
1.16935e-06
-8.46045e-06
4.26436e-07
1.35014e-06
-8.17397e-06
4.30315e-07
1.5391e-06
-7.9388e-06
4.35216e-07
1.73561e-06
-7.73504e-06
4.41603e-07
1.93944e-06
-7.54415e-06
4.49942e-07
2.15064e-06
-7.34852e-06
4.60793e-07
2.36998e-06
-7.13109e-06
4.74303e-07
2.59493e-06
-6.86737e-06
4.90534e-07
2.82408e-06
-6.51712e-06
5.08742e-07
3.05817e-06
-5.97994e-06
5.27254e-07
3.26575e-06
-4.97018e-06
5.33987e-07
3.29845e-06
-3.03591e-06
5.13443e-07
3.24051e-06
-2.29303e-07
4.5354e-07
2.15915e-06
3.43391e-06
4.02262e-07
7.97273e-07
7.74242e-06
3.66941e-07
-4.66563e-07
1.21767e-05
3.48908e-07
-1.19054e-06
1.59155e-05
3.14692e-07
-1.09266e-06
1.7373e-05
2.54536e-07
-6.05071e-07
1.63785e-05
1.54987e-07
9.30618e-06
1.81175e-08
-1.20954e-07
-5.45421e-06
1.23884e-07
-3.12823e-07
-1.18032e-05
2.34655e-07
-4.06722e-07
-1.48625e-05
2.62761e-07
-4.2218e-07
-1.59495e-05
2.75656e-07
-4.06658e-07
-1.61427e-05
2.92485e-07
-3.76014e-07
-1.5895e-05
3.11755e-07
-3.35766e-07
-1.53301e-05
3.31105e-07
-2.88775e-07
-1.45388e-05
3.50498e-07
-2.37693e-07
-1.3624e-05
3.69213e-07
-1.86119e-07
-1.26824e-05
3.86206e-07
-1.37816e-07
-1.1787e-05
4.00778e-07
-9.58346e-08
-1.09835e-05
4.12666e-07
-6.27712e-08
-1.02943e-05
4.22059e-07
-4.07872e-08
-9.72405e-06
4.29588e-07
-3.14649e-08
-9.26419e-06
4.36131e-07
-3.61674e-08
-8.89742e-06
4.42613e-07
-5.64903e-08
-8.60249e-06
4.49804e-07
-9.49366e-08
-8.35773e-06
4.58379e-07
-1.55364e-07
-8.1426e-06
4.69048e-07
-2.43219e-07
-7.93785e-06
4.82674e-07
-3.65522e-07
-7.72525e-06
5.00208e-07
-5.32713e-07
-7.48611e-06
5.2344e-07
-7.58055e-07
-7.19284e-06
5.52197e-07
-1.05303e-06
-6.80704e-06
5.86583e-07
-1.42379e-06
-6.23184e-06
6.24891e-07
-1.79536e-06
-5.26412e-06
6.68665e-07
-2.08105e-06
-3.42738e-06
6.81725e-07
-2.09547e-06
-8.41498e-07
6.32563e-07
-2.35267e-06
3.17055e-06
5.26947e-07
-2.7897e-06
7.75292e-06
4.32763e-07
-2.92478e-06
1.19478e-05
3.6829e-07
-2.57252e-06
1.52465e-05
3.18903e-07
-1.86464e-06
1.64149e-05
2.53534e-07
-9.00648e-07
1.52697e-05
1.50691e-07
8.38745e-06
1.82655e-08
-2.47749e-07
-5.34569e-06
1.39595e-07
-4.98741e-07
-1.17803e-05
2.28256e-07
-6.0405e-07
-1.49861e-05
2.29162e-07
-6.08752e-07
-1.61791e-05
2.3456e-07
-5.7768e-07
-1.6426e-05
2.5238e-07
-5.3794e-07
-1.62108e-05
2.76218e-07
-4.98146e-07
-1.56703e-05
3.00738e-07
-4.61899e-07
-1.49e-05
3.25262e-07
-4.31818e-07
-1.40025e-05
3.48774e-07
-4.11202e-07
-1.30726e-05
3.70002e-07
-4.03955e-07
-1.2182e-05
3.88218e-07
-4.14012e-07
-1.13762e-05
4.03274e-07
-4.45091e-07
-1.06781e-05
4.15532e-07
-5.01026e-07
-1.00932e-05
4.25748e-07
-5.85273e-07
-9.61414e-06
4.34923e-07
-7.01066e-07
-9.22496e-06
4.44108e-07
-8.51699e-07
-8.90522e-06
4.5421e-07
-1.04136e-06
-8.6333e-06
4.6615e-07
-1.2761e-06
-8.38791e-06
4.81064e-07
-1.5647e-06
-8.14829e-06
5.00156e-07
-1.91988e-06
-7.89407e-06
5.25298e-07
-2.35706e-06
-7.60485e-06
5.57383e-07
-2.89022e-06
-7.25335e-06
5.95322e-07
-3.54318e-06
-6.79527e-06
6.43336e-07
-4.29974e-06
-6.17613e-06
7.03959e-07
-5.0346e-06
-5.30912e-06
7.83848e-07
-5.37017e-06
-3.95471e-06
8.67911e-07
-5.24694e-06
-1.85822e-06
9.00325e-07
-4.29733e-06
1.39807e-06
8.29534e-07
-3.33999e-06
6.11921e-06
6.80948e-07
-2.35691e-06
1.04321e-05
5.36346e-07
-1.40423e-06
1.3865e-05
4.3211e-07
-6.83505e-07
1.53363e-05
3.61559e-07
-1.94754e-07
1.44924e-05
2.93543e-07
8.0361e-06
1.56757e-07
-2.90179e-07
-5.19906e-06
1.43454e-07
-5.15302e-07
-1.17595e-05
2.04262e-07
-5.44992e-07
-1.51403e-05
1.83848e-07
-4.76487e-07
-1.64306e-05
1.82931e-07
-3.79464e-07
-1.67232e-05
2.00182e-07
-2.83811e-07
-1.65325e-05
2.26131e-07
-1.9847e-07
-1.6009e-05
2.53352e-07
-1.24168e-07
-1.52551e-05
2.80825e-07
-5.94574e-08
-1.43744e-05
3.07346e-07
-4.05536e-09
-1.34593e-05
3.31413e-07
4.02167e-08
-1.25782e-05
3.52097e-07
7.004e-08
-1.17749e-05
3.69162e-07
8.12751e-08
-1.10721e-05
3.83039e-07
6.91124e-08
-1.04754e-05
3.9461e-07
2.82038e-08
-9.97786e-06
4.04968e-07
-4.66389e-08
-9.56495e-06
4.1524e-07
-1.60577e-07
-9.21733e-06
4.26522e-07
-3.19507e-07
-8.91381e-06
4.39988e-07
-5.31082e-07
-8.63267e-06
4.56976e-07
-8.0578e-07
-8.35198e-06
4.79132e-07
-1.15693e-06
-8.04928e-06
5.07248e-07
-1.6023e-06
-7.70042e-06
5.42055e-07
-2.15937e-06
-7.28116e-06
5.86364e-07
-2.83762e-06
-6.75019e-06
6.35089e-07
-3.639e-06
-6.07276e-06
7.00193e-07
-4.47358e-06
-5.24722e-06
7.75432e-07
-5.04645e-06
-4.25731e-06
8.79204e-07
-5.2022e-06
-2.70316e-06
1.00549e-06
-4.5606e-06
-3.28806e-07
1.09122e-06
-2.72551e-06
3.21125e-06
1.07888e-06
-5.84595e-07
7.33408e-06
9.61875e-07
9.56387e-07
1.15349e-05
7.92909e-07
1.25264e-06
1.43949e-05
6.50177e-07
8.32774e-07
1.44164e-05
5.01725e-07
8.60622e-06
2.6261e-07
-2.30382e-07
-5.10919e-06
1.39526e-07
-3.19173e-07
-1.1833e-05
1.61476e-07
-2.04274e-07
-1.53823e-05
1.26371e-07
-7.8881e-09
-1.67479e-05
1.20339e-07
2.03514e-07
-1.70722e-05
1.37101e-07
4.06239e-07
-1.69003e-05
1.64557e-07
5.94094e-07
-1.63908e-05
1.93413e-07
7.70707e-07
-1.56546e-05
2.22433e-07
9.41404e-07
-1.47961e-05
2.50479e-07
1.11118e-06
-1.39056e-05
2.76058e-07
1.2827e-06
-1.30484e-05
2.98152e-07
1.45612e-06
-1.22653e-05
3.16383e-07
1.62943e-06
-1.15771e-05
3.31106e-07
1.79926e-06
-1.09888e-05
3.43161e-07
1.96124e-06
-1.04939e-05
3.53541e-07
2.11059e-06
-1.0078e-05
3.63271e-07
2.24246e-06
-9.72305e-06
3.73417e-07
2.35177e-06
-9.40871e-06
3.85178e-07
2.43253e-06
-9.1137e-06
3.99873e-07
2.47729e-06
-8.816e-06
4.18881e-07
2.47694e-06
-8.49268e-06
4.43386e-07
2.42121e-06
-8.11848e-06
4.73433e-07
2.29535e-06
-7.66274e-06
5.07071e-07
2.08826e-06
-7.0881e-06
5.44599e-07
1.77129e-06
-6.35664e-06
6.0038e-07
1.33391e-06
-5.48326e-06
6.72918e-07
9.07294e-07
-4.58503e-06
7.53735e-07
5.94861e-07
-3.26112e-06
8.69417e-07
4.93959e-07
-1.24658e-06
1.01716e-06
1.1232e-06
1.44661e-06
1.13349e-06
2.70853e-06
4.57566e-06
1.17114e-06
3.68263e-06
9.45721e-06
1.10187e-06
3.05527e-06
1.41077e-05
9.12504e-07
1.6456e-06
1.51623e-05
6.61696e-07
9.84702e-06
4.04788e-07
-1.26084e-07
-5.1169e-06
1.32255e-07
-1.14901e-08
-1.2065e-05
1.16138e-07
2.6447e-07
-1.57241e-05
6.48537e-08
5.8653e-07
-1.71256e-05
5.48191e-08
9.04145e-07
-1.7461e-05
7.04616e-08
1.2032e-06
-1.72977e-05
9.76714e-08
1.48382e-06
-1.67982e-05
1.26039e-07
1.75583e-06
-1.60815e-05
1.54146e-07
2.02841e-06
-1.52505e-05
1.81052e-07
2.31001e-06
-1.43936e-05
2.05575e-07
2.60642e-06
-1.35726e-05
2.2696e-07
2.92054e-06
-1.28251e-05
2.44931e-07
3.25237e-06
-1.21695e-05
2.59777e-07
3.59956e-06
-1.16089e-05
2.72133e-07
3.95882e-06
-1.11364e-05
2.8256e-07
4.32655e-06
-1.07381e-05
2.9163e-07
4.69892e-06
-1.03963e-05
3.00254e-07
5.0714e-06
-1.00914e-05
3.0969e-07
5.43862e-06
-9.80268e-06
3.21285e-07
5.79405e-06
-9.50827e-06
3.36458e-07
6.12984e-06
-9.18535e-06
3.56575e-07
6.43744e-06
-8.8085e-06
3.82234e-07
6.70997e-06
-8.34679e-06
4.11448e-07
6.93918e-06
-7.76074e-06
4.43515e-07
7.09073e-06
-7.00236e-06
4.94414e-07
7.11552e-06
-6.06321e-06
5.55565e-07
6.93815e-06
-5.03229e-06
6.25341e-07
6.60488e-06
-3.65444e-06
7.27724e-07
6.11635e-06
-1.63294e-06
8.7622e-07
5.43213e-06
1.10375e-06
1.02841e-06
5.40998e-06
3.47698e-06