/*--------------------------------*- C++ -*----------------------------------*\
| =========                 |                                                 |
| \\      /  F ield         | OpenFOAM: The Open Source CFD Toolbox           |
|  \\    /   O peration     | Version:  2.0.x                                 |
|   \\  /    A nd           | Web:      www.OpenFOAM.org                      |
|    \\/     M anipulation  |                                                 |
\*---------------------------------------------------------------------------*/
FoamFile
{
    version     2.0;
    format      ascii;
    class       volScalarField;
    location    "150";
    object      T;
}
// * * * * * * * * * * * * * * * * * * * * * * * * * * * * * * * * * * * * * //

dimensions      [0 0 0 1 0 0 0];

internalField   nonuniform List<scalar> 
78750
(
288.321
288.618
288.867
289.092
289.295
289.48
289.638
289.783
289.909
290.018
290.11
290.184
290.244
290.283
290.316
290.315
290.308
290.297
290.286
290.274
290.263
290.252
290.244
290.237
290.232
290.23
290.23
290.234
290.246
290.264
290.295
290.429
291.223
294.371
302.197
288.359
288.785
289.211
289.615
290.001
290.348
290.651
290.929
291.181
291.403
291.593
291.749
291.871
291.956
292.009
292.023
292.019
291.972
291.89
291.785
291.666
291.536
291.397
291.251
291.102
290.953
290.807
290.674
290.561
290.478
290.467
290.589
291.633
295.113
302.595
288.483
289.157
289.793
290.316
290.709
291.054
291.38
291.68
291.941
292.156
292.324
292.441
292.507
292.523
292.502
292.438
292.348
292.233
292.102
291.962
291.815
291.666
291.515
291.365
291.219
291.081
290.955
290.845
290.761
290.746
290.864
291.465
293.285
297.011
303.41
288.538
289.288
289.92
290.392
290.771
291.118
291.448
291.75
292.011
292.225
292.388
292.498
292.554
292.557
292.518
292.443
292.347
292.234
292.11
291.978
291.845
291.714
291.585
291.461
291.344
291.235
291.14
291.071
291.049
291.12
291.446
292.399
294.576
298.284
304.021
288.566
289.356
290.007
290.48
290.859
291.214
291.549
291.849
292.106
292.316
292.481
292.604
292.684
292.719
292.713
292.672
292.602
292.513
292.411
292.298
292.179
292.057
291.938
291.828
291.726
291.635
291.564
291.528
291.559
291.74
292.259
293.47
295.779
299.349
304.541
288.591
289.412
290.071
290.543
290.919
291.268
291.594
291.885
292.133
292.337
292.5
292.627
292.723
292.79
292.827
292.837
292.823
292.789
292.738
292.673
292.598
292.515
292.428
292.339
292.253
292.177
292.12
292.105
292.171
292.426
293.062
294.395
296.7
300.089
304.875
288.593
289.415
290.076
290.548
290.924
291.271
291.596
291.887
292.134
292.337
292.499
292.626
292.723
292.796
292.85
292.889
292.913
292.924
292.922
292.909
292.886
292.854
292.814
292.77
292.723
292.681
292.653
292.654
292.723
292.978
293.617
294.961
297.24
300.519
305.056
288.6
289.434
290.101
290.575
290.95
291.295
291.615
291.9
292.14
292.337
292.496
292.622
292.72
292.795
292.852
292.894
292.925
292.949
292.968
292.982
292.991
292.997
292.998
292.998
292.998
293.005
293.028
293.092
293.244
293.588
294.325
295.747
297.991
301.097
305.301
288.61
289.462
290.141
290.621
290.996
291.337
291.654
291.934
292.17
292.36
292.511
292.629
292.722
292.793
292.849
292.892
292.925
292.951
292.973
292.991
293.01
293.029
293.051
293.078
293.114
293.169
293.259
293.417
293.704
294.228
295.161
296.709
298.865
301.715
305.557
288.615
289.472
290.159
290.646
291.023
291.362
291.675
291.953
292.188
292.379
292.531
292.648
292.736
292.803
292.855
292.895
292.926
292.952
292.975
292.995
293.015
293.035
293.059
293.09
293.134
293.202
293.313
293.503
293.835
294.418
295.412
296.991
299.099
301.844
305.585
288.615
289.472
290.16
290.648
291.025
291.363
291.675
291.95
292.186
292.379
292.531
292.649
292.738
292.806
292.858
292.899
292.93
292.956
292.979
293
293.021
293.043
293.067
293.096
293.133
293.186
293.27
293.418
293.694
294.212
295.161
296.74
298.927
301.755
305.535
288.615
289.475
290.167
290.658
291.036
291.371
291.675
291.95
292.187
292.381
292.536
292.657
292.749
292.817
292.868
292.907
292.939
292.965
292.988
293.011
293.034
293.058
293.087
293.122
293.168
293.232
293.32
293.446
293.669
294.123
295.03
296.636
298.896
301.765
305.553
288.616
289.476
290.168
290.662
291.039
291.37
291.676
291.95
292.185
292.38
292.535
292.657
292.751
292.821
292.874
292.914
292.946
292.972
292.997
293.021
293.046
293.074
293.106
293.148
293.211
293.313
293.473
293.715
294.081
294.658
295.655
297.318
299.52
302.256
305.77
288.616
289.475
290.167
290.663
291.041
291.372
291.675
291.949
292.185
292.38
292.536
292.658
292.752
292.823
292.876
292.917
292.95
292.978
293.003
293.029
293.055
293.085
293.119
293.164
293.233
293.349
293.555
293.9
294.417
295.181
296.329
298.008
300.055
302.561
305.878
288.616
289.475
290.167
290.663
291.041
291.37
291.675
291.95
292.186
292.38
292.537
292.658
292.752
292.824
292.878
292.921
292.955
292.984
293.011
293.038
293.066
293.097
293.133
293.179
293.241
293.337
293.499
293.789
294.282
295.069
296.261
297.966
300.001
302.49
305.84
288.615
289.471
290.165
290.661
291.04
291.371
291.673
291.946
292.18
292.375
292.531
292.655
292.75
292.824
292.879
292.922
292.957
292.988
293.017
293.045
293.076
293.111
293.151
293.202
293.27
293.364
293.497
293.7
294.064
294.736
295.885
297.639
299.775
302.349
305.766
288.615
289.471
290.165
290.664
291.043
291.372
291.674
291.946
292.182
292.378
292.537
292.66
292.754
292.826
292.882
292.926
292.961
292.993
293.023
293.054
293.088
293.127
293.173
293.233
293.317
293.446
293.628
293.845
294.152
294.726
295.848
297.615
299.77
302.357
305.775
288.614
289.469
290.163
290.663
291.042
291.371
291.675
291.948
292.183
292.379
292.535
292.659
292.754
292.826
292.882
292.927
292.964
292.998
293.03
293.064
293.101
293.144
293.197
293.267
293.375
293.565
293.881
294.295
294.795
295.467
296.531
298.229
300.287
302.744
305.966
288.613
289.461
290.15
290.652
291.033
291.362
291.664
291.936
292.172
292.368
292.527
292.652
292.749
292.823
292.881
292.927
292.965
293
293.034
293.069
293.108
293.154
293.21
293.286
293.408
293.637
294.06
294.708
295.477
296.372
297.544
299.143
300.951
303.128
306.096
288.609
289.45
290.135
290.638
291.018
291.344
291.642
291.911
292.146
292.343
292.503
292.631
292.732
292.81
292.87
292.919
292.959
292.996
293.032
293.069
293.11
293.157
293.212
293.282
293.377
293.538
293.871
294.517
295.428
296.439
297.69
299.249
300.976
303.122
306.083
288.605
289.441
290.129
290.636
291.015
291.339
291.636
291.904
292.137
292.333
292.493
292.62
292.72
292.799
292.86
292.91
292.952
292.99
293.027
293.066
293.109
293.156
293.212
293.28
293.361
293.461
293.604
293.896
294.537
295.532
296.794
298.376
300.212
302.523
305.802
288.603
289.437
290.128
290.644
291.032
291.36
291.657
291.921
292.149
292.34
292.495
292.619
292.717
292.794
292.855
292.905
292.948
292.987
293.025
293.064
293.108
293.157
293.214
293.281
293.36
293.449
293.55
293.681
293.899
294.356
295.224
296.683
298.814
301.58
305.361
288.6
289.432
290.127
290.65
291.045
291.379
291.679
291.947
292.179
292.372
292.526
292.647
292.741
292.814
292.87
292.916
292.956
292.993
293.03
293.07
293.116
293.168
293.23
293.302
293.388
293.486
293.595
293.714
293.862
294.115
294.675
295.951
298.27
301.304
305.232
288.597
289.426
290.122
290.646
291.044
291.379
291.679
291.947
292.18
292.373
292.527
292.648
292.742
292.815
292.872
292.919
292.96
292.998
293.037
293.081
293.131
293.189
293.258
293.34
293.439
293.554
293.682
293.825
294.006
294.29
294.876
296.179
298.523
301.559
305.346
288.596
289.423
290.118
290.64
291.038
291.372
291.672
291.943
292.172
292.374
292.532
292.656
292.751
292.824
292.881
292.927
292.968
293.007
293.049
293.096
293.152
293.218
293.297
293.393
293.511
293.649
293.799
293.958
294.14
294.434
295.081
296.51
298.975
301.909
305.484
288.593
289.415
290.108
290.627
291.024
291.37
291.666
291.932
292.176
292.375
292.533
292.657
292.752
292.826
292.884
292.932
292.975
293.017
293.063
293.116
293.179
293.256
293.35
293.467
293.612
293.78
293.958
294.134
294.3
294.535
295.083
296.506
298.973
301.954
305.496
288.595
289.43
290.13
290.652
291.045
291.37
291.675
291.958
292.197
292.393
292.551
292.675
292.77
292.843
292.9
292.948
292.992
293.036
293.087
293.148
293.223
293.315
293.433
293.587
293.778
293.995
294.224
294.452
294.671
294.952
295.492
296.902
299.367
302.287
305.666
288.599
289.443
290.147
290.67
291.07
291.415
291.722
291.99
292.221
292.414
292.569
292.689
292.782
292.853
292.909
292.958
293.003
293.051
293.107
293.176
293.263
293.374
293.523
293.72
293.964
294.235
294.522
294.82
295.155
295.62
296.488
298.087
300.31
302.862
305.919
288.605
289.458
290.17
290.698
291.103
291.449
291.758
292.032
292.263
292.451
292.598
292.711
292.798
292.865
292.919
292.967
293.012
293.063
293.123
293.2
293.298
293.43
293.615
293.866
294.168
294.489
294.806
295.122
295.492
296.048
297.096
298.882
300.945
303.197
306.061
288.612
289.481
290.2
290.731
291.141
291.496
291.811
292.083
292.309
292.489
292.629
292.736
292.818
292.881
292.933
292.979
293.025
293.078
293.144
293.23
293.347
293.511
293.747
294.068
294.45
294.853
295.236
295.618
296.074
296.793
298.036
299.869
301.655
303.577
306.236
288.627
289.515
290.236
290.761
291.167
291.519
291.833
292.104
292.329
292.508
292.648
292.754
292.834
292.896
292.947
292.993
293.042
293.1
293.175
293.276
293.419
293.633
293.943
294.344
294.817
295.321
295.832
296.382
297.024
297.89
299.15
300.749
302.276
304
306.415
288.634
289.53
290.251
290.772
291.177
291.53
291.843
292.113
292.337
292.516
292.656
292.762
292.842
292.903
292.954
293.001
293.053
293.116
293.201
293.321
293.501
293.775
294.148
294.581
295.056
295.583
296.185
296.867
297.654
298.622
299.863
301.267
302.634
304.254
306.505
288.638
289.543
290.267
290.789
291.192
291.543
291.855
292.124
292.35
292.529
292.667
292.771
292.85
292.911
292.963
293.012
293.068
293.14
293.242
293.397
293.647
294.048
294.553
295.071
295.551
296.035
296.602
297.296
298.134
299.144
300.331
301.566
302.826
304.416
306.571
288.654
289.573
290.295
290.809
291.209
291.56
291.872
292.14
292.362
292.537
292.673
292.774
292.852
292.913
292.965
293.015
293.071
293.146
293.256
293.429
293.721
294.202
294.854
295.504
296.043
296.533
297.076
297.733
298.547
299.533
300.651
301.776
302.98
304.557
306.632
288.661
289.59
290.315
290.827
291.222
291.569
291.878
292.143
292.362
292.538
292.673
292.775
292.852
292.911
292.959
293.004
293.055
293.121
293.215
293.371
293.664
294.198
294.978
295.756
296.422
296.997
297.585
298.252
299.044
299.972
300.986
302.005
303.139
304.666
306.663
288.666
289.599
290.328
290.842
291.238
291.582
291.886
292.148
292.364
292.536
292.669
292.769
292.845
292.905
292.955
293.003
293.054
293.119
293.211
293.357
293.613
294.082
294.835
295.742
296.541
297.211
297.855
298.539
299.313
300.185
301.113
302.048
303.132
304.649
306.652
288.667
289.6
290.328
290.844
291.24
291.585
291.891
292.155
292.371
292.541
292.671
292.77
292.843
292.9
292.947
292.989
293.033
293.084
293.153
293.254
293.427
293.758
294.365
295.265
296.229
297.069
297.79
298.495
299.267
300.128
301.046
301.979
303.052
304.562
306.612
288.664
289.593
290.324
290.842
291.239
291.584
291.89
292.153
292.37
292.541
292.671
292.769
292.843
292.9
292.946
292.987
293.029
293.077
293.139
293.222
293.346
293.556
293.946
294.63
295.574
296.554
297.45
298.299
299.151
300.046
300.984
301.92
302.979
304.475
306.566
288.66
289.583
290.313
290.833
291.23
291.575
291.882
292.148
292.368
292.542
292.675
292.774
292.846
292.901
292.946
292.985
293.025
293.07
293.126
293.2
293.305
293.466
293.732
294.187
294.915
295.84
296.794
297.744
298.697
299.686
300.697
301.679
302.752
304.266
306.477
288.657
289.576
290.307
290.828
291.224
291.569
291.875
292.141
292.363
292.539
292.674
292.774
292.848
292.903
292.947
292.985
293.024
293.067
293.12
293.191
293.288
293.431
293.649
293.994
294.535
295.314
296.227
297.201
298.213
299.28
300.385
301.454
302.576
304.117
306.418
288.653
289.57
290.302
290.825
291.229
291.577
291.885
292.151
292.37
292.543
292.675
292.774
292.848
292.903
292.947
292.985
293.023
293.066
293.119
293.187
293.283
293.42
293.619
293.904
294.324
294.977
295.838
296.832
297.912
299.063
300.254
301.385
302.532
304.076
306.404
288.652
289.573
290.311
290.837
291.237
291.585
291.893
292.16
292.378
292.549
292.68
292.777
292.85
292.904
292.948
292.986
293.024
293.066
293.118
293.188
293.283
293.42
293.618
293.879
294.209
294.65
295.287
296.171
297.278
298.534
299.842
301.064
302.267
303.861
306.308
288.657
289.59
290.332
290.858
291.259
291.607
291.915
292.178
292.393
292.562
292.69
292.785
292.856
292.91
292.953
292.991
293.029
293.074
293.13
293.207
293.315
293.479
293.719
294.013
294.317
294.65
295.121
295.825
296.822
298.067
299.459
300.826
302.114
303.741
306.271
288.663
289.607
290.353
290.88
291.282
291.629
291.935
292.195
292.407
292.573
292.699
292.793
292.863
292.917
292.96
292.998
293.039
293.087
293.151
293.241
293.377
293.6
293.933
294.309
294.648
294.952
295.312
295.866
296.806
298.04
299.453
300.83
302.124
303.759
306.287
288.673
289.634
290.387
290.913
291.314
291.658
291.96
292.215
292.423
292.586
292.709
292.801
292.87
292.923
292.966
293.006
293.05
293.104
293.179
293.292
293.479
293.81
294.307
294.806
295.21
295.545
295.927
296.457
297.231
298.369
299.734
301.042
302.318
303.98
306.395
288.684
289.656
290.407
290.931
291.33
291.673
291.973
292.228
292.435
292.597
292.72
292.81
292.877
292.929
292.972
293.014
293.06
293.118
293.202
293.331
293.556
293.968
294.604
295.328
295.897
296.336
296.788
297.359
298.142
299.175
300.365
301.51
302.707
304.317
306.54
288.688
289.66
290.41
290.933
291.331
291.674
291.976
292.231
292.438
292.599
292.721
292.811
292.878
292.928
292.969
293.006
293.046
293.095
293.164
293.274
293.482
293.899
294.633
295.562
296.351
296.946
297.49
298.091
298.835
299.758
300.78
301.78
302.909
304.465
306.583
288.689
289.66
290.41
290.933
291.331
291.674
291.975
292.23
292.437
292.599
292.72
292.809
292.874
292.924
292.965
293.002
293.04
293.085
293.144
293.232
293.38
293.671
294.247
295.158
296.144
296.936
297.617
298.309
299.082
299.959
300.894
301.831
302.899
304.438
306.565
288.686
289.65
290.398
290.921
291.319
291.662
291.963
292.219
292.428
292.591
292.714
292.804
292.871
292.921
292.961
292.996
293.032
293.072
293.122
293.19
293.292
293.473
293.837
294.532
295.545
296.561
297.438
298.242
299.052
299.925
300.863
301.812
302.888
304.417
306.552
288.68
289.634
290.376
290.897
291.294
291.636
291.937
292.195
292.406
292.572
292.698
292.792
292.861
292.913
292.953
292.988
293.022
293.059
293.104
293.162
293.24
293.356
293.556
293.947
294.676
295.705
296.791
297.816
298.811
299.81
300.809
301.774
302.841
304.345
306.509
288.673
289.616
290.358
290.879
291.275
291.616
291.916
292.174
292.386
292.554
292.683
292.78
292.851
292.905
292.946
292.981
293.014
293.049
293.09
293.142
293.209
293.301
293.437
293.66
294.064
294.774
295.749
296.788
297.881
299.024
300.186
301.296
302.439
303.992
306.357
288.664
289.599
290.339
290.862
291.257
291.597
291.897
292.154
292.366
292.536
292.666
292.766
292.84
292.895
292.938
292.974
293.008
293.043
293.083
293.133
293.198
293.285
293.409
293.594
293.872
294.313
294.997
295.874
296.921
298.132
299.474
300.816
302.11
303.75
306.267
288.661
289.593
290.332
290.854
291.249
291.588
291.886
292.144
292.357
292.527
292.658
292.759
292.835
292.892
292.936
292.973
293.007
293.042
293.083
293.133
293.197
293.284
293.407
293.589
293.854
294.228
294.804
295.616
296.66
297.909
299.322
300.752
302.085
303.732
306.264
288.657
289.583
290.32
290.842
291.237
291.579
291.884
292.144
292.364
292.537
292.671
292.768
292.84
292.895
292.938
292.975
293.008
293.043
293.084
293.136
293.203
293.294
293.426
293.615
293.862
294.164
294.583
295.245
296.251
297.566
299.079
300.586
301.96
303.636
306.228
288.656
289.584
290.319
290.84
291.238
291.58
291.879
292.141
292.36
292.535
292.671
292.772
292.847
292.903
292.946
292.982
293.016
293.052
293.096
293.152
293.227
293.332
293.488
293.726
294.029
294.33
294.63
295.111
295.93
297.185
298.774
300.432
301.887
303.587
306.219
288.656
289.583
290.316
290.839
291.236
291.578
291.884
292.144
292.364
292.538
292.672
292.773
292.848
292.904
292.948
292.985
293.021
293.06
293.108
293.172
293.26
293.39
293.602
293.949
294.38
294.755
295.028
295.364
296.008
297.219
298.813
300.483
301.944
303.648
306.252
288.659
289.587
290.32
290.842
291.237
291.579
291.882
292.146
292.363
292.537
292.672
292.774
292.849
292.905
292.949
292.987
293.023
293.064
293.116
293.184
293.282
293.435
293.718
294.222
294.889
295.481
295.935
296.417
297.104
298.161
299.616
301.06
302.399
304.062
306.445
288.66
289.586
290.317
290.834
291.228
291.57
291.875
292.139
292.359
292.535
292.671
292.773
292.849
292.905
292.949
292.987
293.023
293.063
293.112
293.18
293.281
293.455
293.79
294.384
295.208
296.056
296.751
297.384
298.122
299.108
300.323
301.507
302.717
304.322
306.534
288.653
289.568
290.29
290.798
291.186
291.523
291.824
292.089
292.313
292.497
292.64
292.75
292.832
292.893
292.939
292.978
293.014
293.053
293.099
293.16
293.245
293.378
293.617
294.08
294.868
295.872
296.794
297.624
298.479
299.466
300.572
301.648
302.786
304.334
306.525
288.654
289.569
290.29
290.796
291.18
291.512
291.809
292.07
292.292
292.474
292.619
292.731
292.816
292.88
292.928
292.968
293.005
293.043
293.087
293.143
293.219
293.331
293.517
293.855
294.456
295.369
296.42
297.432
298.422
299.461
300.569
301.644
302.778
304.318
306.508
288.653
289.568
290.291
290.799
291.182
291.511
291.805
292.063
292.284
292.466
292.611
292.723
292.808
292.872
292.922
292.963
293
293.038
293.081
293.135
293.205
293.305
293.462
293.728
294.181
294.904
295.867
296.92
298.03
299.193
300.389
301.517
302.662
304.197
306.451
288.654
289.573
290.307
290.826
291.213
291.544
291.837
292.091
292.305
292.478
292.616
292.724
292.807
292.871
292.92
292.962
292.999
293.036
293.079
293.131
293.199
293.292
293.432
293.661
294.035
294.608
295.405
296.356
297.456
298.689
300
301.239
302.451
304.03
306.386
288.653
289.572
290.308
290.832
291.228
291.565
291.861
292.12
292.336
292.511
292.644
292.744
292.819
292.877
292.923
292.962
292.999
293.036
293.078
293.13
293.198
293.29
293.427
293.641
293.978
294.499
295.217
296.092
297.141
298.385
299.768
301.102
302.37
303.979
306.374
288.651
289.568
290.306
290.832
291.228
291.565
291.862
292.12
292.336
292.51
292.647
292.752
292.83
292.887
292.931
292.967
293.001
293.036
293.078
293.13
293.197
293.29
293.427
293.639
293.95
294.396
295.096
296.011
297.1
298.355
299.748
301.092
302.364
303.973
306.371
288.646
289.558
290.297
290.826
291.223
291.558
291.858
292.118
292.334
292.51
292.647
292.752
292.83
292.889
292.934
292.971
293.005
293.041
293.084
293.139
293.212
293.314
293.463
293.68
293.954
294.297
294.8
295.594
296.711
298.059
299.526
300.933
302.237
303.863
306.318
288.644
289.549
290.287
290.821
291.219
291.557
291.856
292.114
292.333
292.508
292.646
292.75
292.831
292.891
292.937
292.976
293.012
293.051
293.099
293.162
293.25
293.377
293.579
293.88
294.219
294.529
294.888
295.505
296.479
297.801
299.329
300.84
302.192
303.823
306.312
288.644
289.55
290.287
290.821
291.219
291.557
291.855
292.113
292.332
292.507
292.645
292.751
292.831
292.892
292.94
292.98
293.019
293.062
293.117
293.191
293.3
293.474
293.775
294.221
294.673
295.001
295.304
295.762
296.596
297.862
299.409
300.915
302.266
303.908
306.357
288.643
289.551
290.284
290.812
291.214
291.552
291.849
292.108
292.328
292.506
292.645
292.751
292.831
292.892
292.94
292.981
293.021
293.066
293.124
293.205
293.329
293.551
293.99
294.683
295.368
295.801
296.165
296.68
297.511
298.693
300.073
301.375
302.642
304.264
306.526
288.659
289.587
290.317
290.83
291.218
291.553
291.848
292.105
292.323
292.502
292.641
292.748
292.83
292.892
292.94
292.981
293.019
293.061
293.114
293.192
293.32
293.575
294.095
294.921
295.885
296.662
297.202
297.761
298.514
299.522
300.674
301.769
302.929
304.49
306.599
288.663
289.6
290.342
290.861
291.25
291.581
291.872
292.123
292.331
292.5
292.635
292.739
292.819
292.88
292.928
292.968
293.007
293.047
293.094
293.155
293.24
293.369
293.602
294.138
295.125
296.296
297.239
298.029
298.851
299.8
300.837
301.84
302.939
304.479
306.583
288.673
289.626
290.377
290.902
291.296
291.63
291.921
292.169
292.371
292.53
292.655
292.75
292.824
292.881
292.928
292.967
293.005
293.044
293.091
293.152
293.234
293.355
293.55
293.881
294.479
295.505
296.728
297.84
298.82
299.79
300.827
301.825
302.896
304.395
306.528
288.674
289.626
290.379
290.907
291.305
291.643
291.938
292.188
292.395
292.559
292.68
292.77
292.837
292.888
292.93
292.968
293.004
293.044
293.091
293.151
293.233
293.351
293.536
293.841
294.309
294.965
295.874
296.964
298.14
299.352
300.52
301.577
302.682
304.216
306.452
288.673
289.625
290.378
290.907
291.304
291.642
291.936
292.187
292.394
292.558
292.684
292.779
292.849
292.901
292.941
292.975
293.009
293.046
293.092
293.151
293.234
293.353
293.544
293.87
294.362
294.981
295.749
296.72
297.861
299.106
300.366
301.52
302.675
304.215
306.462
288.67
289.62
290.373
290.903
291.302
291.641
291.935
292.188
292.395
292.559
292.685
292.779
292.85
292.903
292.946
292.982
293.017
293.055
293.102
293.164
293.251
293.379
293.594
293.978
294.578
295.276
295.946
296.767
297.872
299.112
300.373
301.528
302.685
304.231
306.481
288.665
289.603
290.349
290.88
291.281
291.623
291.922
292.177
292.388
292.557
292.684
292.779
292.85
292.903
292.946
292.983
293.018
293.058
293.106
293.168
293.251
293.38
293.612
294.051
294.767
295.662
296.508
297.297
298.203
299.341
300.587
301.726
302.88
304.405
306.553
288.655
289.576
290.314
290.843
291.243
291.585
291.888
292.148
292.364
292.538
292.672
292.771
292.845
292.9
292.943
292.979
293.014
293.052
293.098
293.157
293.238
293.356
293.547
293.895
294.558
295.546
296.592
297.521
298.462
299.502
300.605
301.707
302.85
304.383
306.544
288.654
289.573
290.309
290.834
291.232
291.573
291.873
292.134
292.351
292.525
292.66
292.762
292.837
292.894
292.937
292.974
293.009
293.048
293.094
293.152
293.233
293.349
293.523
293.779
294.176
294.955
296.113
297.314
298.41
299.46
300.582
301.66
302.788
304.318
306.509
288.652
289.57
290.308
290.835
291.232
291.571
291.871
292.13
292.346
292.52
292.656
292.758
292.835
292.892
292.936
292.974
293.009
293.048
293.093
293.152
293.232
293.347
293.521
293.773
294.095
294.529
295.291
296.361
297.657
299.029
300.359
301.58
302.73
304.195
306.44
288.649
289.566
290.311
290.842
291.243
291.586
291.888
292.149
292.364
292.536
292.669
292.769
292.843
292.897
292.94
292.975
293.01
293.048
293.095
293.157
293.244
293.373
293.571
293.843
294.13
294.4
294.731
295.272
296.127
297.359
298.864
300.442
301.862
303.545
306.173
288.649
289.569
290.312
290.843
291.244
291.587
291.89
292.151
292.367
292.54
292.672
292.771
292.844
292.9
292.943
292.98
293.016
293.057
293.109
293.18
293.284
293.446
293.715
294.091
294.461
294.735
294.95
295.246
295.813
296.775
298.208
299.937
301.517
303.335
306.118
288.652
289.579
290.324
290.854
291.254
291.597
291.902
292.164
292.379
292.548
292.679
292.777
292.85
292.905
292.948
292.984
293.02
293.062
293.116
293.192
293.306
293.504
293.861
294.383
294.891
295.237
295.496
295.743
296.092
296.826
298.204
299.939
301.52
303.339
306.137
288.658
289.591
290.338
290.869
291.272
291.618
291.923
292.182
292.396
292.563
292.691
292.787
292.856
292.908
292.949
292.985
293.021
293.061
293.114
293.191
293.316
293.538
293.945
294.561
295.266
295.85
296.298
296.689
297.154
297.885
299.017
300.516
301.94
303.655
306.294
288.661
289.597
290.343
290.872
291.274
291.62
291.926
292.186
292.398
292.565
292.693
292.787
292.856
292.908
292.949
292.984
293.017
293.054
293.101
293.168
293.271
293.455
293.82
294.478
295.349
296.152
296.815
297.405
298.025
298.82
299.896
301.146
302.405
304.012
306.413
288.664
289.602
290.348
290.878
291.279
291.625
291.928
292.186
292.398
292.565
292.693
292.787
292.857
292.909
292.949
292.984
293.017
293.053
293.099
293.161
293.251
293.404
293.698
294.256
295.118
296.078
296.93
297.716
298.497
299.372
300.414
301.531
302.69
304.225
306.483
288.666
289.607
290.354
290.882
291.282
291.626
291.928
292.187
292.398
292.565
292.692
292.787
292.856
292.907
292.947
292.98
293.012
293.046
293.088
293.144
293.224
293.355
293.601
294.074
294.858
295.848
296.827
297.753
298.673
299.643
300.682
301.727
302.828
304.323
306.517
288.667
289.607
290.354
290.882
291.282
291.626
291.927
292.185
292.394
292.56
292.686
292.781
292.851
292.903
292.944
292.977
293.009
293.042
293.082
293.134
293.208
293.324
293.535
293.952
294.682
295.668
296.658
297.623
298.612
299.643
300.722
301.755
302.848
304.349
306.525
288.665
289.603
290.349
290.879
291.279
291.62
291.919
292.174
292.384
292.55
292.678
292.773
292.844
292.897
292.938
292.971
293.002
293.033
293.07
293.117
293.181
293.278
293.447
293.778
294.411
295.409
296.506
297.529
298.561
299.649
300.774
301.824
302.916
304.403
306.544
288.661
289.589
290.332
290.864
291.264
291.604
291.902
292.157
292.367
292.535
292.664
292.762
292.835
292.889
292.93
292.964
292.994
293.024
293.058
293.101
293.158
293.237
293.358
293.574
294.004
294.823
296.023
297.317
298.519
299.637
300.762
301.824
302.918
304.397
306.538
288.65
289.563
290.303
290.836
291.238
291.58
291.879
292.136
292.349
292.519
292.651
292.751
292.826
292.881
292.923
292.956
292.986
293.015
293.047
293.087
293.139
293.211
293.315
293.47
293.707
294.113
294.92
296.2
297.586
299.003
300.361
301.609
302.774
304.242
306.456
288.64
289.543
290.281
290.814
291.216
291.557
291.856
292.113
292.327
292.5
292.636
292.739
292.817
292.875
292.917
292.952
292.983
293.012
293.045
293.083
293.133
293.2
293.295
293.435
293.64
293.904
294.231
294.772
295.69
297.02
298.651
300.352
301.861
303.586
306.181
288.637
289.539
290.274
290.807
291.209
291.549
291.846
292.101
292.315
292.49
292.628
292.733
292.814
292.873
292.92
292.956
292.986
293.016
293.05
293.091
293.146
293.221
293.332
293.51
293.795
294.15
294.469
294.773
295.335
296.38
297.991
299.912
301.597
303.434
306.155
288.631
289.523
290.256
290.791
291.195
291.539
291.84
292.098
292.315
292.49
292.629
292.736
292.816
292.876
292.922
292.958
292.989
293.02
293.055
293.099
293.158
293.243
293.377
293.617
294.029
294.568
295.013
295.389
295.841
296.686
298.186
300.085
301.714
303.502
306.207
288.626
289.504
290.224
290.754
291.158
291.505
291.813
292.08
292.304
292.485
292.626
292.733
292.815
292.876
292.921
292.958
292.99
293.023
293.059
293.105
293.169
293.262
293.417
293.707
294.227
294.963
295.763
296.452
297.137
298.036
299.347
300.865
302.257
303.924
306.397
288.619
289.485
290.196
290.717
291.115
291.456
291.76
292.028
292.256
292.446
292.598
292.716
292.804
292.869
292.918
292.956
292.989
293.021
293.057
293.101
293.159
293.242
293.375
293.634
294.156
295.015
296.05
296.972
297.865
298.854
300.051
301.322
302.557
304.127
306.453
288.615
289.475
290.184
290.705
291.101
291.44
291.742
292.008
292.236
292.424
292.576
292.696
292.787
292.856
292.907
292.948
292.982
293.015
293.051
293.093
293.149
293.226
293.34
293.524
293.854
294.523
295.622
296.835
297.9
298.979
300.178
301.403
302.598
304.132
306.447
288.611
289.464
290.17
290.69
291.084
291.422
291.724
291.99
292.219
292.409
292.562
292.684
292.777
292.848
292.901
292.943
292.978
293.012
293.048
293.091
293.147
293.223
293.335
293.509
293.779
294.183
294.911
296.02
297.35
298.708
300.058
301.32
302.507
304.026
306.37
288.609
289.462
290.17
290.692
291.089
291.428
291.73
291.996
292.221
292.409
292.56
292.68
292.772
292.843
292.896
292.939
292.975
293.009
293.046
293.089
293.144
293.22
293.33
293.502
293.756
294.063
294.429
295.046
296.061
297.459
299.075
300.679
302.087
303.732
306.256
288.617
289.49
290.213
290.742
291.143
291.487
291.793
292.058
292.279
292.459
292.599
292.708
292.791
292.854
292.904
292.944
292.98
293.015
293.054
293.103
293.167
293.26
293.404
293.654
294.038
294.453
294.76
295.153
295.986
297.304
298.958
300.645
302.086
303.739
306.269
288.626
289.512
290.242
290.772
291.175
291.52
291.825
292.086
292.304
292.477
292.613
292.719
292.8
292.862
292.91
292.95
292.985
293.021
293.061
293.113
293.186
293.296
293.49
293.866
294.482
295.168
295.673
296.162
296.786
297.88
299.402
300.967
302.377
304.043
306.441
288.633
289.522
290.248
290.78
291.183
291.528
291.832
292.094
292.312
292.487
292.625
292.729
292.808
292.868
292.915
292.953
292.988
293.024
293.065
293.117
293.193
293.321
293.571
294.064
294.874
295.868
296.72
297.371
298.087
299.059
300.317
301.589
302.835
304.412
306.575
288.633
289.522
290.248
290.778
291.182
291.526
291.83
292.093
292.312
292.487
292.624
292.729
292.808
292.867
292.913
292.949
292.982
293.014
293.05
293.095
293.156
293.248
293.412
293.759
294.462
295.573
296.725
297.665
298.566
299.557
300.674
301.766
302.898
304.415
306.563
288.631
289.513
290.237
290.769
291.174
291.519
291.824
292.088
292.307
292.482
292.62
292.725
292.805
292.864
292.909
292.946
292.977
293.007
293.041
293.081
293.134
293.207
293.319
293.518
293.928
294.743
295.982
297.305
298.476
299.533
300.65
301.744
302.874
304.39
306.545
288.618
289.483
290.203
290.738
291.144
291.49
291.798
292.065
292.288
292.468
292.609
292.717
292.798
292.859
292.906
292.942
292.973
293.003
293.034
293.072
293.121
293.187
293.283
293.422
293.632
293.984
294.694
295.871
297.181
298.603
300.005
301.326
302.536
304.034
306.362
288.609
289.465
290.183
290.719
291.126
291.471
291.778
292.047
292.27
292.455
292.603
292.712
292.796
292.857
292.904
292.94
292.971
293
293.031
293.068
293.114
293.176
293.263
293.391
293.575
293.806
294.083
294.544
295.357
296.617
298.254
300.023
301.613
303.414
306.112
288.604
289.454
290.17
290.708
291.122
291.472
291.78
292.046
292.273
292.456
292.599
292.714
292.798
292.861
292.908
292.945
292.976
293.007
293.04
293.08
293.133
293.207
293.315
293.489
293.753
294.059
294.328
294.597
295.119
296.108
297.7
299.671
301.425
303.323
306.108
288.604
289.452
290.169
290.707
291.121
291.469
291.778
292.046
292.271
292.455
292.602
292.713
292.799
292.863
292.911
292.949
292.982
293.014
293.051
293.097
293.162
293.257
293.411
293.683