/*--------------------------------*- C++ -*----------------------------------*\
| =========                 |                                                 |
| \\      /  F ield         | OpenFOAM: The Open Source CFD Toolbox           |
|  \\    /   O peration     | Version:  2.0.x                                 |
|   \\  /    A nd           | Web:      www.OpenFOAM.org                      |
|    \\/     M anipulation  |                                                 |
\*---------------------------------------------------------------------------*/
FoamFile
{
    version     2.0;
    format      ascii;
    class       volVectorField;
    location    "150";
    object      U;
}
// * * * * * * * * * * * * * * * * * * * * * * * * * * * * * * * * * * * * * //

dimensions      [0 1 -1 0 0 0 0];

internalField   nonuniform List<vector> 
78750
(
(-0.0011218 0.00346325 -0.000394788)
(-0.000848957 0.00178864 -0.000340575)
(0.00213757 -0.00450978 0.000138575)
(0.00717643 -0.0120793 0.000777452)
(0.0135902 -0.0183561 0.00136877)
(0.0210313 -0.0233614 0.00178999)
(0.0290818 -0.0242253 0.00185088)
(0.0369816 -0.028 0.00219645)
(0.0447313 -0.0300148 0.00260973)
(0.0515626 -0.0289175 0.00274387)
(0.0575295 -0.0263436 0.00278461)
(0.0624845 -0.0227025 0.00267376)
(0.0664608 -0.0182753 0.00216714)
(0.0695553 -0.0133071 0.00163169)
(0.0712277 -0.0102514 0.00107561)
(0.0728083 -0.00444833 0.000471083)
(0.0725831 -0.00225608 -6.80755e-05)
(0.0724351 0.000925389 -0.000636307)
(0.0712412 0.00385044 -0.00111511)
(0.0694294 0.0065195 -0.00151732)
(0.0671563 0.00892618 -0.00186648)
(0.06449 0.0110988 -0.00217779)
(0.0614439 0.0130803 -0.00246668)
(0.0581238 0.0148809 -0.0027735)
(0.0543612 0.0166928 -0.00310182)
(0.0505243 0.0182471 -0.00357686)
(0.0460538 0.0203802 -0.00398242)
(0.0418123 0.0210279 -0.0050914)
(0.0369119 0.0215972 -0.00648387)
(0.0320263 0.0220779 -0.00824439)
(0.0268704 0.0224208 -0.010381)
(0.0220795 0.0225962 -0.0128811)
(0.0160941 0.0243978 -0.0159534)
(0.0108008 0.0274339 -0.0162526)
(0.00350628 0.0271374 -0.00986009)
(0.000419814 -0.00576734 0.000840799)
(0.00458925 -0.0278318 0.00222478)
(0.0113457 -0.051436 0.00351667)
(0.0188666 -0.0694692 0.00465357)
(0.0269365 -0.0806678 0.0056962)
(0.0326375 -0.088005 0.00661007)
(0.0405411 -0.0870902 0.00785895)
(0.0429976 -0.0835564 0.00817021)
(0.0486708 -0.074167 0.00830696)
(0.0509191 -0.064144 0.0084811)
(0.05254 -0.0537822 0.00856849)
(0.0535596 -0.0435907 0.00862505)
(0.0534583 -0.0342229 0.00895533)
(0.0529775 -0.0249361 0.00916259)
(0.0519629 -0.016137 0.00928262)
(0.0506953 -0.00797896 0.00932591)
(0.0491208 -0.000391239 0.00927945)
(0.0475939 0.00650632 0.00908756)
(0.0456022 0.0143135 0.00844245)
(0.0438602 0.0193106 0.00778073)
(0.0420144 0.0233503 0.00712117)
(0.0397137 0.0273344 0.00640004)
(0.0378737 0.029974 0.00588145)
(0.0355312 0.0333996 0.00518221)
(0.0331306 0.0361999 0.00445422)
(0.0310588 0.0385007 0.0036526)
(0.0280613 0.0413257 0.00251274)
(0.0260476 0.04442 0.00186741)
(0.0233616 0.0473413 0.000903423)
(0.0204899 0.0500685 -0.00060763)
(0.0173884 0.0526257 -0.00288534)
(0.0140787 0.0557818 -0.00599631)
(0.0101391 0.0631065 -0.00958384)
(0.0055896 0.0754754 -0.0106655)
(0.00109464 0.0679642 -0.00598901)
(0.000637671 -0.0262571 0.000828978)
(0.00463887 -0.0740764 0.00243984)
(0.00933054 -0.104916 0.0038703)
(0.0132916 -0.117759 0.00492615)
(0.0163345 -0.118242 0.00563387)
(0.0183048 -0.114141 0.00598151)
(0.0193469 -0.10543 0.00640452)
(0.0207181 -0.0933554 0.0072696)
(0.0193606 -0.0807965 0.00805633)
(0.0194732 -0.0664246 0.00872493)
(0.0185668 -0.0515034 0.00918793)
(0.0173157 -0.0370577 0.00931136)
(0.0159775 -0.0239691 0.00903914)
(0.0145703 -0.0126325 0.00859449)
(0.0131429 -0.00294495 0.00806172)
(0.0118047 0.00497848 0.00747834)
(0.0109027 0.00982223 0.00709392)
(0.0101036 0.0149378 0.00674753)
(0.0097065 0.0194963 0.00639984)
(0.00952875 0.0236633 0.00602035)
(0.00942847 0.027689 0.00559926)
(0.00935049 0.0317032 0.00511318)
(0.00925135 0.0357508 0.00451251)
(0.00911542 0.0397766 0.00380079)
(0.00896227 0.0435615 0.00293391)
(0.00854763 0.0468834 0.00186871)
(0.00868575 0.0493111 0.000557131)
(0.00781553 0.0531334 -0.000864415)
(0.00763297 0.0573589 -0.00229381)
(0.00709401 0.0621257 -0.00377828)
(0.00654898 0.0678323 -0.00537711)
(0.00540928 0.0761008 -0.00751724)
(0.0035367 0.0893176 -0.00948601)
(0.00138433 0.100411 -0.00907512)
(-9.5938e-05 0.0802596 -0.00454352)
(0.000573719 -0.0388805 0.00102694)
(0.00267755 -0.0918102 0.00288326)
(0.00435856 -0.115671 0.00426568)
(0.00534546 -0.122377 0.0052277)
(0.00589431 -0.121956 0.00599096)
(0.00636137 -0.116861 0.00674947)
(0.00606912 -0.107689 0.00730399)
(0.00670416 -0.0951762 0.00760936)
(0.0059861 -0.0804562 0.00809845)
(0.00564347 -0.0647547 0.00854942)
(0.0048668 -0.0493967 0.00888506)
(0.00402388 -0.0351922 0.00888085)
(0.0031285 -0.0228299 0.00839595)
(0.00224556 -0.012791 0.00755093)
(0.00144998 -0.00517798 0.00646748)
(0.000843856 0.000452604 0.00533772)
(0.000412118 0.00474976 0.00430544)
(8.5427e-05 0.00859428 0.00332055)
(-3.44457e-05 0.01223 0.00238725)
(1.64135e-05 0.0158199 0.00150322)
(0.0002057 0.0194533 0.000676779)
(0.000496773 0.0232084 -7.79275e-05)
(0.000920845 0.0271419 -0.000708307)
(0.00137837 0.0312464 -0.00131459)
(0.00191002 0.0354689 -0.00188832)
(0.00234547 0.0398837 -0.00240449)
(0.00296695 0.0448015 -0.00278534)
(0.00318375 0.0496646 -0.00359325)
(0.00354712 0.054813 -0.00473309)
(0.00372886 0.060972 -0.00622544)
(0.00363515 0.0692579 -0.00788973)
(0.00311434 0.082561 -0.00942189)
(0.00191832 0.100443 -0.0101032)
(0.000551447 0.110677 -0.00866847)
(-0.000155987 0.0820989 -0.00394779)
(0.000330806 -0.0474457 0.000828921)
(0.0012968 -0.104338 0.00256461)
(0.00205597 -0.128527 0.00382818)
(0.00266711 -0.134049 0.00466763)
(0.00302051 -0.132189 0.00531731)
(0.00320275 -0.125395 0.00595368)
(0.0032454 -0.114381 0.00663708)
(0.00295545 -0.100313 0.0073626)
(0.00255853 -0.0843874 0.00815367)
(0.00201649 -0.0680564 0.00909272)
(0.00165174 -0.0517123 0.00986956)
(0.00125876 -0.0364474 0.010324)
(0.000950636 -0.0229715 0.0102885)
(0.000690039 -0.0117049 0.00965746)
(0.000448521 -0.00283392 0.008558)
(0.000179236 0.00366536 0.00712885)
(-0.000127522 0.00819965 0.00558227)
(-0.000439436 0.011566 0.0040728)
(-0.00071722 0.0144372 0.00260324)
(-0.000929037 0.017197 0.00117588)
(-0.00104398 0.0200599 -0.000233571)
(-0.00101744 0.0231391 -0.00167406)
(-0.000918603 0.0264674 -0.00322407)
(-0.000597182 0.0299249 -0.00443175)
(-0.000171857 0.0335573 -0.00535866)
(0.000345325 0.037493 -0.00608173)
(0.000960326 0.0419422 -0.00669082)
(0.00159127 0.0470711 -0.00729992)
(0.00214707 0.0532717 -0.00792272)
(0.00261191 0.0617009 -0.00861123)
(0.0025536 0.0742472 -0.009937)
(0.00201914 0.0923422 -0.0109275)
(0.00106724 0.112527 -0.0108195)
(8.28545e-05 0.120691 -0.00877844)
(-0.000278645 0.0841933 -0.00379719)
(7.96172e-05 -0.0503501 0.00125822)
(0.000187213 -0.107024 0.0035426)
(8.93235e-05 -0.129593 0.00496977)
(-8.28791e-05 -0.13483 0.00577583)
(-0.000279469 -0.132762 0.00636323)
(-0.000502768 -0.125761 0.00683111)
(-0.000779807 -0.114496 0.00723629)
(-0.000938877 -0.100293 0.00763075)
(-0.0010513 -0.0845795 0.00808434)
(-0.0013383 -0.0686972 0.008607)
(-0.00147275 -0.053902 0.00923614)
(-0.00152041 -0.0404183 0.00988637)
(-0.00146741 -0.0284621 0.0104043)
(-0.00130376 -0.0181685 0.0106293)
(-0.00107626 -0.00956196 0.0104357)
(-0.000773924 -0.0024448 0.00990892)
(-0.000480241 0.00321056 0.00899168)
(-0.00022538 0.00804438 0.00762289)
(-3.28102e-05 0.0121965 0.00591452)
(0.00013129 0.0157524 0.00407574)
(0.000264646 0.0189669 0.00220649)
(0.000377071 0.022015 0.000401391)
(0.000535236 0.0249877 -0.00126522)
(0.00068572 0.0281162 -0.00292359)
(0.00088498 0.0315194 -0.00447413)
(0.00112024 0.0353432 -0.00578718)
(0.00146772 0.0398334 -0.00659691)
(0.00177626 0.0454785 -0.00737892)
(0.00203187 0.0530408 -0.00835036)
(0.0021123 0.0636208 -0.00943394)
(0.00204431 0.0792716 -0.0103985)
(0.00163238 0.100404 -0.0109973)
(0.00098561 0.121245 -0.0105391)
(0.000270193 0.127266 -0.0083427)
(-0.000112288 0.0852088 -0.0035384)
(1.71989e-05 -0.0512087 0.00122706)
(1.54169e-06 -0.109037 0.00311207)
(-9.04897e-05 -0.132854 0.00425669)
(-0.000209439 -0.13874 0.00499248)
(-0.000358746 -0.137224 0.005603)
(-0.000519513 -0.130895 0.00623376)
(-0.000650045 -0.120418 0.00693673)
(-0.000762342 -0.106846 0.0076851)
(-0.000810685 -0.0916729 0.00842828)
(-0.000813972 -0.0761731 0.00914192)
(-0.000786092 -0.0613055 0.009823)
(-0.000740639 -0.0477297 0.0104815)
(-0.000673628 -0.0358113 0.0111034)
(-0.000574642 -0.0257152 0.0116375)
(-0.000417656 -0.0174528 0.0120096)
(-0.000205505 -0.0108296 0.012144)
(0.000124856 -0.00514129 0.0121771)
(0.000544577 5.22544e-06 0.0120245)
(0.00105194 0.00459598 0.0116942)
(0.00161811 0.00916343 0.0110366)
(0.00219207 0.0136205 0.0100645)
(0.00276059 0.0179854 0.00878072)
(0.00327656 0.0222785 0.0071813)
(0.00368585 0.0265574 0.00525452)
(0.00397853 0.030919 0.00303042)
(0.00413325 0.0355077 0.000614605)
(0.00416086 0.0405117 -0.00177645)
(0.0040521 0.0467754 -0.00448532)
(0.00394329 0.0549734 -0.00685429)
(0.00372001 0.0668142 -0.00872464)
(0.00328689 0.0841901 -0.00998937)
(0.00258543 0.107606 -0.0103767)
(0.00166088 0.12974 -0.00952431)
(0.000578066 0.134691 -0.00719398)
(-0.000105593 0.0883086 -0.00290443)
(-1.71297e-05 -0.0518671 0.00135351)
(-5.54842e-05 -0.109883 0.00336113)
(-0.000167818 -0.133497 0.00450573)
(-0.000326451 -0.139318 0.00513206)
(-0.00051059 -0.137853 0.00559351)
(-0.000714812 -0.131714 0.00599537)
(-0.000917299 -0.121619 0.0064029)
(-0.00109239 -0.108649 0.00685526)
(-0.00122595 -0.0942018 0.00737638)
(-0.00131241 -0.0795459 0.00796718)
(-0.00133965 -0.0655822 0.00860909)
(-0.00129344 -0.0528687 0.00927281)
(-0.00117672 -0.0417173 0.00992568)
(-0.000994205 -0.032277 0.0105299)
(-0.000765312 -0.0245955 0.0110411)
(-0.000505595 -0.0186321 0.0114123)
(-0.000227842 -0.0141512 0.0116056)
(0.000145913 -0.0102873 0.0118246)
(0.000637221 -0.00664147 0.0120471)
(0.00127245 -0.00285628 0.0122533)
(0.00206935 0.00133653 0.0123915)
(0.00293179 0.0057486 0.0123626)
(0.0039136 0.0113031 0.0120579)
(0.00484872 0.0173681 0.011397)
(0.00571217 0.0239552 0.010223)
(0.00640298 0.031068 0.0083552)
(0.00674082 0.0388222 0.00549228)
(0.006856 0.0473507 0.00293797)
(0.00665747 0.0583676 -0.000902696)
(0.00595522 0.0729514 -0.00469954)
(0.00479979 0.0931395 -0.00786443)
(0.00315257 0.119122 -0.00934179)
(0.0016141 0.141598 -0.00892873)
(0.000232492 0.144399 -0.00680255)
(-0.000387379 0.092262 -0.00270987)
(-3.92998e-05 -0.0524757 0.00142997)
(-0.000152843 -0.111802 0.00341774)
(-0.000309863 -0.136465 0.00452444)
(-0.000475034 -0.142789 0.00515757)
(-0.000653165 -0.141642 0.00560618)
(-0.000840176 -0.13581 0.00603983)
(-0.00101579 -0.126041 0.00649185)
(-0.00115902 -0.113414 0.00694914)
(-0.00125535 -0.0993644 0.0073944)
(-0.00129714 -0.0851917 0.00782565)
(-0.00127736 -0.0718011 0.00825096)
(-0.00119766 -0.0597224 0.00867833)
(-0.00105742 -0.0492031 0.00910884)
(-0.000852056 -0.0402974 0.00953351)
(-0.000589391 -0.0329289 0.00993433)
(-0.000295637 -0.026958 0.0102861)
(-1.29551e-05 -0.0222462 0.0105591)
(0.000247248 -0.0186569 0.0107223)
(0.000482097 -0.0159659 0.0107515)
(0.000759796 -0.013384 0.0108629)
(0.00112378 -0.0105862 0.0110642)
(0.001611 -0.00715804 0.011375)
(0.00224056 -0.00263428 0.0117866)
(0.00295878 0.00293312 0.0121702)
(0.00377492 0.0106368 0.0124105)
(0.0045045 0.0203091 0.0121933)
(0.00503182 0.0318233 0.0110492)
(0.00526068 0.0453335 0.0084545)
(0.00490929 0.0610222 0.00593306)
(0.00421249 0.0813404 0.00192991)
(0.00303624 0.106531 -0.00239475)
(0.00160626 0.133864 -0.00587124)
(0.000526131 0.153812 -0.00679087)
(-0.000180339 0.152584 -0.00559342)
(-0.000334032 0.0940724 -0.00227181)
(-3.80883e-05 -0.0524655 0.00155425)
(-0.000184643 -0.111929 0.0036546)
(-0.000400331 -0.136802 0.00478812)
(-0.000593742 -0.143303 0.00537908)
(-0.000781871 -0.142339 0.00575514)
(-0.000962233 -0.136795 0.00608519)
(-0.00110106 -0.127513 0.00642487)
(-0.00117653 -0.115551 0.00678787)
(-0.00119471 -0.102245 0.00716616)
(-0.00117058 -0.0888208 0.00754413)
(-0.0011094 -0.0761563 0.00790662)
(-0.00100016 -0.0647796 0.00824371)
(-0.000849395 -0.0549451 0.00855122)
(-0.000668696 -0.0467085 0.00883083)
(-0.000451945 -0.0399619 0.00908746)
(-0.000197854 -0.0344687 0.00932758)
(8.21877e-05 -0.0299294 0.00955562)
(0.000359251 -0.0260741 0.00976736)
(0.0005895 -0.0227434 0.00994235)
(0.000751418 -0.0198877 0.010044)
(0.000835132 -0.0174459 0.0100327)
(0.000881671 -0.0146247 0.0101305)
(0.000932073 -0.0109962 0.0103705)
(0.00103376 -0.00592135 0.0108093)
(0.00118222 0.00117755 0.0114389)
(0.00133409 0.0103623 0.0121257)
(0.00161419 0.0234803 0.0126183)
(0.00192826 0.0399783 0.0121944)
(0.00224458 0.0598954 0.0100925)
(0.00218825 0.0831487 0.0073484)
(0.00206957 0.111314 0.00374501)
(0.00145806 0.140081 4.72447e-05)
(0.00125255 0.158862 -0.00161035)
(0.000905172 0.155734 -0.0016588)
(0.000310377 0.0945634 -0.000625769)
(-4.23524e-05 -0.0526511 0.00150161)
(-0.000109855 -0.113512 0.0035264)
(-0.000186399 -0.139569 0.00464867)
(-0.000229047 -0.146792 0.00522553)
(-0.000263483 -0.146292 0.00557656)
(-0.000288668 -0.141279 0.0058869)
(-0.000281688 -0.13259 0.00620879)
(-0.000248637 -0.121162 0.00654307)
(-0.000192581 -0.108242 0.00687384)
(-8.53584e-05 -0.0950708 0.00718523)
(5.69024e-05 -0.082585 0.00746796)
(0.000227375 -0.0713553 0.00771897)
(0.000429471 -0.0616679 0.00793703)
(0.000660799 -0.0535911 0.00812315)
(0.000927295 -0.0470351 0.00828034)
(0.0012283 -0.0417744 0.00841573)
(0.00156353 -0.0374907 0.00854067)
(0.00192992 -0.0338416 0.00866841)
(0.00231763 -0.0305224 0.00880904)
(0.00270515 -0.027294 0.00896218)
(0.00305482 -0.0239988 0.00911668)
(0.00334319 -0.0205707 0.00923577)
(0.00357699 -0.0169946 0.00924129)
(0.00378133 -0.0122701 0.00933351)
(0.00396179 -0.00561342 0.00954942)
(0.00420286 0.00367264 0.00992237)
(0.0042502 0.0132024 0.0104308)
(0.00441255 0.0288675 0.0112422)
(0.00498202 0.0490395 0.0115974)
(0.00532729 0.075318 0.010529)
(0.00529344 0.107551 0.00798618)
(0.00513881 0.140308 0.00607422)
(0.00399672 0.16233 0.00418058)
(0.00229781 0.161727 0.00288595)
(0.000569085 0.101157 0.0015291)
(9.27696e-06 -0.0531965 0.00157266)
(3.75785e-05 -0.115093 0.00383573)
(2.04773e-06 -0.141717 0.00504902)
(-1.59952e-05 -0.149212 0.00555851)
(-3.54182e-05 -0.148852 0.00582206)
(-3.17779e-05 -0.143997 0.00603743)
(-4.04972e-06 -0.135556 0.0062603)
(5.21172e-05 -0.124497 0.00650128)
(0.000180076 -0.112064 0.0067475)
(0.000361865 -0.0994593 0.00697945)
(0.000590174 -0.0875824 0.00718431)
(0.000859265 -0.0769778 0.00735539)
(0.00117409 -0.0679019 0.00749437)
(0.00154578 -0.0604 0.00760487)
(0.00195593 -0.0543622 0.0076931)
(0.00240523 -0.0495612 0.00776562)
(0.00289326 -0.0456938 0.0078302)
(0.00342228 -0.0424385 0.00789554)
(0.00399294 -0.0395101 0.00796901)
(0.00460662 -0.0366849 0.00805069)
(0.00526683 -0.033771 0.00813612)
(0.00597578 -0.0305581 0.00822204)
(0.00672058 -0.0267756 0.00830402)
(0.00749779 -0.0220772 0.00835695)
(0.00834289 -0.0160862 0.00828494)
(0.00924385 -0.00703579 0.00823146)
(0.00989138 0.00641516 0.00820243)
(0.0100958 0.01768 0.00835048)
(0.0100182 0.0394629 0.00897469)
(0.00929575 0.0695049 0.00952717)
(0.00794435 0.106635 0.00923828)
(0.00655366 0.144884 0.00811955)
(0.00430011 0.175242 0.00636633)
(0.00167611 0.176144 0.00442789)
(-0.000168677 0.109103 0.00195895)
(2.00422e-05 -0.0543313 0.0016518)
(4.18631e-05 -0.117517 0.0040951)
(1.58513e-05 -0.144967 0.00539391)
(1.96553e-05 -0.152951 0.00592746)
(5.08794e-05 -0.15298 0.0061863)
(0.000102404 -0.148589 0.00638598)
(0.000190261 -0.140711 0.0065918)
(0.000341676 -0.130228 0.00681177)
(0.000520957 -0.118301 0.00703106)
(0.00073789 -0.106092 0.00723027)
(0.0009986 -0.0945259 0.00739454)
(0.00128813 -0.084189 0.00751852)
(0.00161208 -0.0753642 0.00760378)
(0.00196093 -0.0681159 0.00765834)
(0.00233356 -0.062335 0.00769311)
(0.00272763 -0.0578016 0.00771854)
(0.00314168 -0.0542314 0.00774323)
(0.00357662 -0.051316 0.00777571)
(0.0040353 -0.0487535 0.00782615)
(0.00452113 -0.0463135 0.00789679)
(0.00503499 -0.0438424 0.00798122)
(0.00558105 -0.0411962 0.00806708)
(0.00617261 -0.0381336 0.00814278)
(0.00683214 -0.0341494 0.00820208)
(0.00755613 -0.0283052 0.00821186)
(0.00838168 -0.0191648 0.00803699)
(0.0093878 -0.00350902 0.00773742)
(0.00983798 0.0122859 0.00756574)
(0.00944478 0.0392763 0.00774724)
(0.00796793 0.0748271 0.00835638)
(0.00547027 0.118002 0.00846588)
(0.00247129 0.162589 0.00760683)
(0.000158659 0.188864 0.00618052)
(-0.00100256 0.184224 0.0042985)
(-0.00072933 0.109423 0.00165455)
(2.674e-05 -0.0551134 0.00172211)
(2.97876e-05 -0.1193 0.00432611)
(-1.02571e-05 -0.147638 0.00564295)
(-2.11817e-06 -0.156153 0.00613038)
(3.0496e-05 -0.156483 0.00633643)
(8.64557e-05 -0.152347 0.00649038)
(0.000150169 -0.144723 0.00665934)
(0.00023376 -0.134517 0.00685457)
(0.000355898 -0.122902 0.00706141)
(0.000513495 -0.111022 0.00726008)
(0.000699181 -0.099781 0.00743505)
(0.000916145 -0.0897485 0.00757872)
(0.00115629 -0.081204 0.00768811)
(0.00140425 -0.0741967 0.00776756)
(0.00166211 -0.0686074 0.00782482)
(0.00191903 -0.0642076 0.00786998)
(0.00216995 -0.0607248 0.00791209)
(0.00240674 -0.0578897 0.00795943)
(0.00262883 -0.055415 0.00802262)
(0.00283507 -0.0530573 0.00811264)
(0.0030208 -0.0506542 0.00822987)
(0.00317901 -0.0480607 0.00836605)
(0.00329963 -0.0450649 0.00851033)
(0.00337218 -0.0411699 0.00865697)
(0.00338355 -0.0353511 0.0087772)
(0.00331668 -0.0258777 0.00877341)
(0.00340051 -0.0102516 0.0084537)
(0.00334605 0.0125943 0.00819855)
(0.00314716 0.0425548 0.00815211)
(0.00244792 0.0825241 0.00834914)
(0.00145896 0.126743 0.0083538)
(0.000347175 0.167677 0.00767063)
(-0.000202313 0.190367 0.00632911)
(-0.000457397 0.183185 0.00447683)
(-0.000172001 0.106043 0.00175641)
(2.25889e-06 -0.0560117 0.00193329)
(2.14881e-06 -0.121578 0.00485675)
(-3.36109e-05 -0.150835 0.00626836)
(-6.98637e-06 -0.159844 0.00676477)
(4.65146e-05 -0.160453 0.00695931)
(0.000121296 -0.156582 0.0070978)
(0.000222056 -0.149266 0.00724843)
(0.000330128 -0.139392 0.00741399)
(0.000470438 -0.128099 0.00757623)
(0.000644165 -0.116506 0.00771545)
(0.000840431 -0.105489 0.00782534)
(0.00106258 -0.0956223 0.00790804)
(0.00129328 -0.0871879 0.00797144)
(0.0015392 -0.0802393 0.00802222)
(0.00178625 -0.0746633 0.00806695)
(0.00202804 -0.0702335 0.00811159)
(0.00225726 -0.0666727 0.00816193)
(0.00246718 -0.0637018 0.00822361)
(0.00265289 -0.0610715 0.00830095)
(0.00280931 -0.0585611 0.00840201)
(0.00293122 -0.0559729 0.00853089)
(0.00300779 -0.0531014 0.00868716)
(0.00302107 -0.0496632 0.00886563)
(0.00294818 -0.0451698 0.00905597)
(0.00275401 -0.0387474 0.00922556)
(0.00239401 -0.0290057 0.00927759)
(0.00179307 -0.0141528 0.00902334)
(0.00103135 0.00895333 0.00871579)
(0.00108063 0.0371803 0.0085547)
(0.00172589 0.0766765 0.00867476)
(0.00194817 0.1217 0.00872102)
(0.00184618 0.165967 0.00790572)
(0.00140596 0.189936 0.00661898)
(0.00104243 0.183192 0.00488681)
(0.000502044 0.105883 0.00200634)
(2.99712e-05 -0.0568244 0.0020644)
(7.43158e-05 -0.123768 0.00508742)
(6.51984e-05 -0.154125 0.00642434)
(0.000133767 -0.163791 0.00686848)
(0.000222494 -0.164729 0.0070479)
(0.000329372 -0.161104 0.00719937)
(0.00045112 -0.154009 0.00739024)
(0.000573229 -0.144358 0.00761593)
(0.000719657 -0.133288 0.00784237)
(0.000905556 -0.121923 0.00803398)
(0.00111426 -0.111125 0.00817213)
(0.00135453 -0.101449 0.00825906)
(0.00163089 -0.0931673 0.00830895)
(0.00193325 -0.0863267 0.00834001)
(0.00225946 -0.0808107 0.00836717)
(0.00259793 -0.0763987 0.0084007)
(0.00294072 -0.0728248 0.00844724)
(0.00328547 -0.069818 0.00851247)
(0.00363004 -0.067125 0.00860198)
(0.00397231 -0.0645175 0.00871934)
(0.00430895 -0.0617889 0.00886429)
(0.00463548 -0.0587236 0.00903457)
(0.00494895 -0.0550336 0.00922591)
(0.00525152 -0.0502242 0.00943099)
(0.00555225 -0.0433915 0.00961445)
(0.0058279 -0.0330335 0.00965141)
(0.00590055 -0.0172667 0.0092865)
(0.00528239 0.00686136 0.00860697)
(0.00487466 0.0299118 0.00814383)
(0.0049279 0.0692783 0.00783101)
(0.00481354 0.118417 0.00760776)
(0.00423033 0.165425 0.00740736)
(0.00329462 0.190161 0.00675673)
(0.0018522 0.185832 0.0051993)
(0.000487461 0.111214 0.00214007)
(6.5033e-05 -0.0582704 0.0023574)
(7.93854e-05 -0.126536 0.00553639)
(4.78087e-05 -0.157701 0.00674461)
(0.000105161 -0.167846 0.00709124)
(0.000202111 -0.169048 0.00723368)
(0.000317936 -0.165623 0.00738785)
(0.000445382 -0.158754 0.00761039)
(0.000585669 -0.149372 0.00788841)
(0.000745934 -0.138621 0.008179)
(0.000938346 -0.127618 0.0084356)
(0.00118164 -0.117203 0.00862894)
(0.0014752 -0.107895 0.00874984)
(0.00180174 -0.0999498 0.00881116)
(0.00216064 -0.0933982 0.00883528)
(0.00255047 -0.0881182 0.00884621)
(0.00297214 -0.0838979 0.00886187)
(0.00341413 -0.0804886 0.00889397)
(0.00387618 -0.0776427 0.0089509)
(0.00436039 -0.0751262 0.009041)
(0.00486828 -0.0727184 0.00917318)
(0.0054021 -0.0702149 0.00935224)
(0.00596207 -0.0674153 0.00957514)
(0.00655532 -0.0640643 0.00983522)
(0.00721042 -0.0596852 0.010123)
(0.00796079 -0.0532525 0.0103977)
(0.00882536 -0.0427719 0.0104541)
(0.00965647 -0.0251379 0.00986432)
(0.00982595 0.00215099 0.008322)
(0.00869353 0.0262161 0.00722993)
(0.00589757 0.0691543 0.00621076)
(0.00432447 0.118871 0.00627773)
(0.00370557 0.168442 0.00624784)
(0.00237017 0.200668 0.00499539)
(0.0010474 0.196188 0.0032406)
(2.02074e-05 0.11598 0.000762705)
(3.11698e-05 -0.059494 0.00271327)
(-0.000109559 -0.128692 0.00577553)
(-0.000196206 -0.160832 0.00668094)
(-0.000220607 -0.171702 0.00689388)
(-0.000176444 -0.173309 0.00700912)
(-0.000107294 -0.170208 0.00719293)
(-1.66033e-05 -0.16365 0.00748425)
(9.57193e-05 -0.154587 0.00786386)
(0.000222972 -0.144159 0.00828153)
(0.000382472 -0.133471 0.00868032)
(0.000562195 -0.123355 0.0090167)
(0.000760857 -0.114323 0.00926945)
(0.00098561 -0.106626 0.00943913)
(0.00123361 -0.100303 0.00954466)
(0.0014991 -0.0952376 0.00961283)
(0.00177649 -0.0912241 0.00967015)
(0.00207161 -0.0880197 0.00973774)
(0.00238092 -0.0853884 0.00983211)
(0.00270154 -0.0831127 0.00996863)
(0.00303518 -0.080985 0.0101652)
(0.00338032 -0.0788022 0.0104441)
(0.0037275 -0.076373 0.0108262)
(0.00408585 -0.0734906 0.0113243)
(0.00450347 -0.0697654 0.0119487)
(0.0047421 -0.0640771 0.0126945)
(0.00519397 -0.0530895 0.0130917)
(0.00592884 -0.0326957 0.0123287)
(0.00720878 -0.00096629 0.00961045)
(0.00638332 0.0335812 0.00712003)
(0.00358442 0.0811372 0.00519541)
(0.000208947 0.13416 0.00440496)
(-0.0025327 0.18204 0.00389548)
(-0.0026544 0.202654 0.00354312)
(-0.00213624 0.194373 0.00232788)
(-0.00114489 0.113597 6.57011e-05)
(-4.93278e-05 -0.0599856 0.00298885)
(-0.000349737 -0.129888 0.00578858)
(-0.000633906 -0.162992 0.00635994)
(-0.000690461 -0.17467 0.00639242)
(-0.000679353 -0.176734 0.0064589)
(-0.000635726 -0.173991 0.00665796)
(-0.000581685 -0.167751 0.00700178)
(-0.000521563 -0.158999 0.00746295)
(-0.000450534 -0.148872 0.00798672)
(-0.000372938 -0.138457 0.00851387)
(-0.000294406 -0.128571 0.0089971)
(-0.000220594 -0.119723 0.00940702)
(-0.000156848 -0.11216 0.00973301)
(-0.000108382 -0.105932 0.00998327)
(-7.95029e-05 -0.10094 0.0101784)
(-7.32036e-05 -0.0969852 0.0103441)
(-9.2516e-05 -0.0938316 0.010506)
(-0.000140274 -0.0912407 0.0106882)
(-0.00022106 -0.0889888 0.0109139)
(-0.000343255 -0.0868723 0.0112079)
(-0.000511896 -0.0847027 0.0116004)
(-0.000758322 -0.0822871 0.0121348)
(-0.00111473 -0.0793165 0.0128516)
(-0.00165907 -0.0752964 0.0137985)
(-0.00226482 -0.0690861 0.0150605)
(-0.00357067 -0.0577757 0.0167419)
(-0.00409014 -0.0355477 0.0171878)
(-0.00343885 -0.00534563 0.0148356)
(-0.00253288 0.0416793 0.010086)
(-0.00348232 0.0912477 0.00636912)
(-0.00468684 0.139084 0.00416098)
(-0.0048714 0.178677 0.00335406)
(-0.00395111 0.193884 0.00271565)
(-0.00229699 0.182019 0.00129011)
(-0.00044758 0.10204 -0.00041158)
(-0.000178995 -0.0593423 0.00333776)
(-0.000682599 -0.129478 0.00562327)
(-0.000949506 -0.164446 0.00568973)
(-0.00101034 -0.177352 0.0055262)
(-0.000971461 -0.180029 0.00554619)
(-0.000908534 -0.177692 0.00575418)
(-0.000849087 -0.171774 0.00613537)
(-0.000798198 -0.163291 0.0066522)
(-0.000753103 -0.153371 0.00724597)
(-0.000716475 -0.143078 0.00785657)
(-0.000696941 -0.133223 0.00843649)
(-0.00070258 -0.124324 0.00895548)
(-0.0007381 -0.116646 0.00940016)
(-0.000809704 -0.110254 0.00977236)
(-0.000924473 -0.105066 0.0100862)
(-0.00108885 -0.100899 0.0103622)
(-0.00130854 -0.0975226 0.0106241)
(-0.00158965 -0.0946951 0.0108967)
(-0.00194035 -0.0921853 0.0112065)
(-0.00237247 -0.0897704 0.0115833)
(-0.00291053 -0.0872349 0.0120642)
(-0.00358194 -0.0843653 0.0126991)
(-0.00433696 -0.0807811 0.0135235)
(-0.00537709 -0.0761327 0.014757)
(-0.00678023 -0.069425 0.0165255)
(-0.00879786 -0.0590821 0.0190325)
(-0.0112206 -0.0404163 0.0219186)
(-0.0111145 -0.0135672 0.0226084)
(-0.00770043 0.0286221 0.0190113)
(-0.00539123 0.0827357 0.0127737)
(-0.00449035 0.130695 0.00819512)
(-0.00254299 0.167384 0.00568586)
(-0.0012734 0.181073 0.00474295)
(-4.60351e-05 0.169441 0.00425276)
(0.000901204 0.0934753 0.00285011)
(-0.000272816 -0.057701 0.00346284)
(-0.000759984 -0.129371 0.00528622)
(-0.000902915 -0.165738 0.00467639)
(-0.000850489 -0.179748 0.00430462)
(-0.000690862 -0.18299 0.00426747)
(-0.000521173 -0.180957 0.00446376)
(-0.000368672 -0.17525 0.00485464)
(-0.000250325 -0.16695 0.00539272)
(-0.000156019 -0.157196 0.00601624)
(-7.21165e-05 -0.147029 0.00666306)
(1.14202e-05 -0.137233 0.0072833)
(8.08479e-05 -0.128314 0.00784444)
(0.000115367 -0.120533 0.00833376)
(0.0001138 -0.113955 0.00875335)
(6.99415e-05 -0.108509 0.00911598)
(-2.49907e-05 -0.104028 0.00943993)
(-0.000180157 -0.100292 0.00974567)
(-0.000404713 -0.0970611 0.0100543)
(-0.000710377 -0.0940947 0.0103876)
(-0.00111422 -0.0911526 0.010772)
(-0.0016292 -0.0879927 0.011249)
(-0.0022263 -0.0843603 0.0119005)
(-0.00317647 -0.0800475 0.0129249)
(-0.00416708 -0.0744577 0.0141803)
(-0.00543646 -0.0672633 0.0157818)
(-0.00668708 -0.0580731 0.0176374)
(-0.00888348 -0.0458952 0.0205284)
(-0.0120735 -0.0255848 0.0246342)
(-0.0135081 0.00441725 0.0274249)
(-0.00976863 0.0550778 0.0263542)
(-0.00332824 0.104259 0.0214701)
(0.0018814 0.146675 0.0159464)
(0.00425554 0.168894 0.0122634)
(0.0050944 0.164299 0.0106078)
(0.00291897 0.0942678 0.00541228)
(-0.000249789 -0.0561976 0.00334204)
(-0.000536069 -0.129121 0.0042314)
(-0.000468347 -0.167848 0.00342784)
(-0.000183798 -0.182923 0.00293581)
(0.000173386 -0.186637 0.00284166)
(0.000517064 -0.18487 0.00300055)
(0.000841502 -0.179353 0.00336579)
(0.00113355 -0.17126 0.00388471)
(0.00142622 -0.161733 0.00450035)
(0.00171793 -0.151782 0.00515342)
(0.00199404 -0.142155 0.00579265)
(0.00227505 -0.133336 0.00637988)
(0.00256617 -0.125576 0.00689404)
(0.00285189 -0.118944 0.0073316)
(0.00312567 -0.11337 0.00770102)
(0.00338573 -0.1087 0.00801766)
(0.00362412 -0.104729 0.0082995)
(0.00383086 -0.101228 0.0085647)
(0.00399672 -0.0979547 0.00883055)
(0.00411076 -0.0946635 0.00911494)
(0.00415876 -0.0910969 0.00944083)
(0.0041218 -0.0869721 0.00984198)
(0.00398828 -0.0819582 0.0103633)
(0.00373274 -0.0756575 0.0110897)
(0.00336243 -0.0676924 0.0121424)
(0.00238009 -0.0582893 0.0137311)
(0.00192298 -0.0484509 0.0154218)
(0.000813189 -0.0333302 0.0186921)
(-0.0012119 -0.00915485 0.0237203)
(-0.00278553 0.0200118 0.0278363)
(-0.000117484 0.0631579 0.0295072)
(0.00652599 0.115525 0.0269354)
(0.00860388 0.16007 0.0221823)
(0.00604799 0.167098 0.0152806)
(0.00234939 0.106843 0.00927483)
(-0.000176168 -0.0557837 0.00312625)
(-0.00011209 -0.130993 0.00320321)
(0.000257539 -0.171099 0.0020382)
(0.000760257 -0.186774 0.00143143)
(0.00129069 -0.190723 0.00127365)
(0.00178589 -0.189109 0.00136941)
(0.00225693 -0.183717 0.00166091)
(0.00268283 -0.175824 0.00209617)
(0.00310784 -0.166584 0.00263405)
(0.00355837 -0.156993 0.00323056)
(0.00404217 -0.147752 0.00384208)
(0.00455354 -0.139302 0.00442996)
(0.00509372 -0.131863 0.00496649)
(0.00566898 -0.125489 0.00543624)
(0.00627065 -0.12011 0.00583508)
(0.00688423 -0.115573 0.00616903)
(0.00750572 -0.111685 0.00645)
(0.00813185 -0.10823 0.00669093)
(0.00875512 -0.10498 0.00690352)
(0.00936606 -0.101693 0.00709939)
(0.00995304 -0.0981203 0.00729448)
(0.0105015 -0.0939837 0.00751828)
(0.010998 -0.0889445 0.00782109)
(0.0114341 -0.0825721 0.00827806)
(0.0118042 -0.0743825 0.00897923)
(0.0119218 -0.0645007 0.0099475)
(0.0119987 -0.0543614 0.0110267)
(0.0116736 -0.0400008 0.0135876)
(0.0103858 -0.018815 0.0184167)
(0.00884189 0.01265 0.02407)
(0.0080778 0.0403758 0.0274513)
(0.00864253 0.0988497 0.0294467)
(0.00820495 0.160245 0.0245922)
(0.00416639 0.180434 0.019148)
(0.000922103 0.121313 0.0114783)
(-7.74025e-05 -0.0563957 0.00263663)
(0.00021737 -0.134265 0.00196778)
(0.000793328 -0.175432 0.000680566)
(0.00150765 -0.191329 7.87669e-05)
(0.00222569 -0.195315 -0.000107917)
(0.00287531 -0.193766 -7.91108e-05)
(0.00352353 -0.188489 0.000101479)
(0.00413275 -0.18083 0.000387263)
(0.00471672 -0.171905 0.000759528)
(0.00531784 -0.162696 0.00119825)
(0.00596291 -0.15387 0.0016768)
(0.00663876 -0.145837 0.0021662)
(0.00734849 -0.138795 0.00263792)
(0.00809163 -0.132778 0.00306783)
(0.00886432 -0.127707 0.00344186)
(0.0096638 -0.123434 0.00375736)
(0.0104861 -0.119763 0.00401842)
(0.0113249 -0.116477 0.00423138)
(0.0121697 -0.113346 0.00440089)
(0.0130067 -0.110127 0.00452978)
(0.0138179 -0.106564 0.00462549)
(0.0145773 -0.102372 0.00470628)
(0.0152571 -0.0972011 0.00481294)
(0.0158367 -0.0906041 0.00501138)
(0.0162392 -0.0819912 0.00541243)
(0.0164952 -0.0710539 0.00627381)
(0.016059 -0.0583796 0.00828099)
(0.0154521 -0.042284 0.011021)
(0.0140554 -0.0185694 0.0152972)
(0.0125259 0.011505 0.0208758)
(0.0117527 0.03746 0.0248847)
(0.00916801 0.101087 0.0286197)
(0.00569229 0.172241 0.0257103)
(0.00113799 0.19392 0.020061)
(-0.000903817 0.126686 0.011569)
(3.11744e-05 -0.0578533 0.00188319)
(0.000597794 -0.138499 0.000538192)
(0.00138728 -0.180355 -0.000693503)
(0.00230206 -0.196195 -0.00118133)