/*--------------------------------*- C++ -*----------------------------------*\
| =========                 |                                                 |
| \\      /  F ield         | OpenFOAM: The Open Source CFD Toolbox           |
|  \\    /   O peration     | Version:  2.0.x                                 |
|   \\  /    A nd           | Web:      www.OpenFOAM.org                      |
|    \\/     M anipulation  |                                                 |
\*---------------------------------------------------------------------------*/
FoamFile
{
    version     2.0;
    format      ascii;
    class       volScalarField;
    location    "750";
    object      alphat;
}
// * * * * * * * * * * * * * * * * * * * * * * * * * * * * * * * * * * * * * //

dimensions      [1 -1 -1 0 0 0 0];

internalField   nonuniform List<scalar> 
78750
(
1.04808e-07
1.30747e-05
1.52536e-05
1.89597e-05
2.38253e-05
2.7197e-05
2.88879e-05
2.66112e-05
2.40629e-05
2.41427e-05
2.35287e-05
2.32501e-05
2.34857e-05
2.37374e-05
2.41928e-05
2.49562e-05
2.56484e-05
2.6354e-05
2.74912e-05
2.89839e-05
3.02039e-05
3.03904e-05
2.91165e-05
3.04096e-05
3.27917e-05
3.28329e-05
3.27531e-05
3.20862e-05
3.05519e-05
2.8335e-05
2.54445e-05
2.28719e-05
1.96982e-05
1.54943e-05
1.25509e-07
8.09558e-08
1.38881e-05
3.0873e-05
1.4406e-05
9.88132e-06
1.12591e-05
1.69786e-05
2.43687e-05
3.21521e-05
3.60929e-05
3.86949e-05
4.1022e-05
4.35824e-05
4.61399e-05
4.76667e-05
4.99546e-05
5.29345e-05
5.55034e-05
5.63935e-05
5.60592e-05
5.60757e-05
6.10523e-05
6.66171e-05
6.81358e-05
6.88073e-05
6.5775e-05
6.14384e-05
4.22211e-05
3.75525e-05
4.39128e-05
3.37438e-05
2.2737e-05
1.83734e-05
2.16858e-05
2.74951e-07
1.50563e-08
5.51053e-06
6.76607e-06
6.33749e-06
7.9774e-06
1.15529e-05
1.84711e-05
2.88517e-05
4.29931e-05
5.755e-05
6.82582e-05
7.19248e-05
7.34293e-05
7.51148e-05
7.66737e-05
7.78644e-05
7.74371e-05
7.68664e-05
7.67888e-05
7.65891e-05
7.86511e-05
7.80293e-05
7.22807e-05
6.64687e-05
6.47277e-05
6.23303e-05
5.32701e-05
3.90722e-05
3.85701e-05
3.6601e-05
2.43173e-05
1.66797e-05
1.53452e-05
3.02631e-05
3.3772e-07
1.87173e-08
5.06126e-06
8.09988e-06
1.21884e-05
1.93145e-05
3.13555e-05
4.74859e-05
6.34771e-05
7.52003e-05
8.27252e-05
8.89825e-05
9.46598e-05
9.80647e-05
9.8736e-05
9.65705e-05
9.22706e-05
9.14687e-05
9.15199e-05
8.88114e-05
8.49486e-05
7.97481e-05
7.44564e-05
6.90737e-05
6.31794e-05
5.83823e-05
5.41379e-05
4.67007e-05
3.64707e-05
3.66354e-05
3.22002e-05
2.02598e-05
1.37686e-05
1.3966e-05
3.52388e-05
3.69268e-07
2.10581e-08
4.7982e-06
9.99171e-06
1.81786e-05
3.01499e-05
4.42606e-05
5.84792e-05
7.12473e-05
8.26723e-05
9.23353e-05
9.48794e-05
9.11078e-05
9.08297e-05
9.32468e-05
9.54442e-05
9.61005e-05
9.39984e-05
9.02373e-05
8.65601e-05
8.2938e-05
7.93974e-05
7.54948e-05
7.08854e-05
6.56236e-05
6.03915e-05
5.5413e-05
4.71803e-05
3.69781e-05
3.60105e-05
2.87328e-05
1.72658e-05
1.20367e-05
1.34002e-05
3.53098e-05
3.77919e-07
5.62655e-08
5.17476e-06
1.25729e-05
2.57042e-05
4.52667e-05
6.22372e-05
7.28486e-05
7.87909e-05
8.06533e-05
8.45033e-05
8.98662e-05
9.43928e-05
9.75318e-05
9.78531e-05
9.56063e-05
9.23497e-05
8.90864e-05
8.6757e-05
8.56043e-05
8.49332e-05
8.3659e-05
8.11635e-05
7.69866e-05
7.11068e-05
6.43826e-05
5.65464e-05
4.57322e-05
4.11605e-05
3.89091e-05
2.69785e-05
1.59052e-05
1.11263e-05
1.32958e-05
2.9964e-05
3.81889e-07
7.95054e-08
5.92541e-06
1.57638e-05
3.34725e-05
5.4272e-05
6.95549e-05
7.95361e-05
8.29918e-05
8.04821e-05
8.02098e-05
8.24429e-05
8.44428e-05
8.7361e-05
9.04189e-05
9.23403e-05
9.21616e-05
9.03836e-05
8.95347e-05
9.06839e-05
9.20402e-05
9.19501e-05
9.01863e-05
8.67744e-05
8.15259e-05
7.35922e-05
6.22316e-05
5.0207e-05
4.63725e-05
3.77538e-05
2.39334e-05
1.47116e-05
1.07115e-05
1.34566e-05
2.53079e-05
3.78711e-07
1.27125e-07
6.34023e-06
1.82018e-05
4.18667e-05
6.55813e-05
7.41166e-05
7.2493e-05
6.83027e-05
6.80281e-05
6.94683e-05
7.25886e-05
7.88527e-05
8.59544e-05
9.23562e-05
9.6666e-05
9.80422e-05
9.64848e-05
9.49568e-05
9.59434e-05
9.76267e-05
9.77131e-05
9.59058e-05
9.22729e-05
8.66528e-05
7.85545e-05
6.81783e-05
5.76953e-05
5.29022e-05
3.94105e-05
2.34877e-05
1.42983e-05
1.06725e-05
1.38558e-05
2.13323e-05
3.76018e-07
1.62487e-07
7.15732e-06
2.18239e-05
4.96415e-05
7.0051e-05
7.54123e-05
7.13335e-05
6.32505e-05
5.77205e-05
5.8165e-05
6.45097e-05
7.47372e-05
8.62278e-05
9.60572e-05
0.000102662
0.000105542
0.000105108
0.00010258
0.00010224
0.000104497
0.000105407
0.000104024
0.000100236
9.39955e-05
8.51368e-05
7.40332e-05
6.66191e-05
5.63342e-05
3.83233e-05
2.3057e-05
1.40616e-05
1.08764e-05
1.47044e-05
1.80617e-05
3.73224e-07
2.05135e-07
7.45894e-06
2.39069e-05
5.59119e-05
7.19396e-05
6.90709e-05
5.952e-05
5.24721e-05
4.99863e-05
5.24008e-05
6.05764e-05
7.27379e-05
8.54391e-05
9.64408e-05
0.000104104
0.000108119
0.00010869
0.000106636
0.000104997
0.000105939
0.00010747
0.000106995
0.000104023
9.86548e-05
9.11946e-05
8.18601e-05
7.47621e-05
5.9025e-05
3.8891e-05
2.37875e-05
1.45163e-05
1.13293e-05
1.56442e-05
1.60568e-05
3.73156e-07
2.31379e-07
7.92287e-06
2.60928e-05
5.85964e-05
7.17752e-05
6.84338e-05
5.91418e-05
5.10729e-05
4.74948e-05
4.88565e-05
5.4785e-05
6.50944e-05
7.86904e-05
9.27622e-05
0.000103233
0.000109429
0.00011198
0.000111597
0.000109462
0.00010888
0.000110171
0.000110206
0.000107888
0.000103231
9.61211e-05
8.76647e-05
7.80172e-05
5.9313e-05
3.91002e-05
2.41421e-05
1.49727e-05
1.19979e-05
1.71076e-05
1.43222e-05
3.7471e-07
2.55009e-07
7.94696e-06
2.63526e-05
5.92054e-05
7.06564e-05
6.66877e-05
5.82043e-05
5.07663e-05
4.6256e-05
4.5175e-05
4.83228e-05
5.65039e-05
6.81463e-05
8.07725e-05
9.44825e-05
0.000104772
0.000110234
0.000111985
0.000111526
0.000110545
0.000110872
0.000111478
0.000109773
0.000105826
0.000100459
9.47122e-05
7.92553e-05
5.82702e-05
3.98116e-05
2.49644e-05
1.57542e-05
1.28241e-05
1.87431e-05
1.32922e-05
3.79052e-07
2.63907e-07
7.9548e-06
2.59122e-05
5.71293e-05
6.95122e-05
6.81674e-05
6.16887e-05
5.44827e-05
4.87159e-05
4.51052e-05
4.41448e-05
4.68827e-05
5.47975e-05
6.74703e-05
8.1183e-05
9.39435e-05
0.000104884
0.00011085
0.000112446
0.000111716
0.000111262
0.000111383
0.000110358
0.000107336
0.000102428
9.49159e-05
7.78286e-05
5.72414e-05
3.94976e-05
2.5404e-05
1.65691e-05
1.38792e-05
2.09118e-05
1.24532e-05
3.85586e-07
2.69402e-07
7.86207e-06
2.44341e-05
5.39247e-05
6.80187e-05
6.78244e-05
6.27843e-05
5.67689e-05
5.16169e-05
4.76686e-05
4.49416e-05
4.38464e-05
4.55447e-05
5.15887e-05
6.26493e-05
7.70665e-05
9.00022e-05
0.000100223
0.00010672
0.000108915
0.000109573
0.00010975
0.000108925
0.000107091
0.000104577
9.2496e-05
7.38238e-05
5.59505e-05
3.91436e-05
2.56823e-05
1.72826e-05
1.49862e-05
2.32827e-05
1.1915e-05
3.93583e-07
2.69323e-07
7.86424e-06
2.40219e-05
5.17786e-05
6.71702e-05
6.94438e-05
6.64281e-05
6.13841e-05
5.63309e-05
5.1975e-05
4.84269e-05
4.56398e-05
4.38583e-05
4.39753e-05
4.75331e-05
5.58381e-05
6.8393e-05
8.20314e-05
9.27124e-05
0.000100098
0.000103695
0.000104835
0.000104822
0.000103423
0.000100727
8.82566e-05
7.02163e-05
5.36223e-05
3.8171e-05
2.57251e-05
1.79517e-05
1.62381e-05
2.60566e-05
1.15038e-05
4.03282e-07
2.64945e-07
7.80704e-06
2.34553e-05
4.98946e-05
6.70775e-05
7.13621e-05
6.98186e-05
6.58079e-05
6.1102e-05
5.66015e-05
5.25873e-05
4.91145e-05
4.61536e-05
4.38002e-05
4.25918e-05
4.35944e-05
4.82019e-05
5.74013e-05
7.00628e-05
8.19288e-05
9.01726e-05
9.49124e-05
9.7115e-05
9.97803e-05
9.44033e-05
8.07916e-05
6.64105e-05
5.11768e-05
3.69236e-05
2.55179e-05
1.84562e-05
1.74521e-05
2.89204e-05
1.12488e-05
4.14893e-07
2.53026e-07
7.68464e-06
2.27914e-05
4.89785e-05
6.72226e-05
7.3204e-05
7.35354e-05
7.08293e-05
6.65345e-05
6.17523e-05
5.70855e-05
5.28855e-05
4.92574e-05
4.61625e-05
4.35523e-05
4.1636e-05
4.10246e-05
4.27562e-05
4.79998e-05
5.73545e-05
6.87775e-05
7.83092e-05
8.64102e-05
9.21384e-05
8.6231e-05
7.38723e-05
6.16735e-05
4.84128e-05
3.5496e-05
2.51523e-05
1.89034e-05
1.87312e-05
3.18684e-05
1.10633e-05
4.28835e-07
2.47611e-07
7.55531e-06
2.20313e-05
4.78776e-05
6.78033e-05
7.52236e-05
7.65043e-05
7.44827e-05
7.06423e-05
6.59991e-05
6.11877e-05
5.6617e-05
5.25237e-05
4.89883e-05
4.59379e-05
4.32491e-05
4.09873e-05
3.94589e-05
3.93166e-05
4.15296e-05
4.70148e-05
5.64968e-05
7.15733e-05
7.97052e-05
7.44214e-05
6.72755e-05
5.7187e-05
4.56431e-05
3.41809e-05
2.47539e-05
1.92439e-05
1.992e-05
3.45263e-05
1.09369e-05
4.4589e-07
2.50335e-07
7.36513e-06
2.15303e-05
4.80315e-05
6.87532e-05
7.67212e-05
7.86166e-05
7.70562e-05
7.34533e-05
6.88754e-05
6.42191e-05
5.99341e-05
5.6172e-05
5.27881e-05
4.96111e-05
4.65426e-05
4.35872e-05
4.08874e-05
3.85953e-05
3.70831e-05
3.71706e-05
4.06517e-05
5.23939e-05
6.3759e-05
6.27206e-05
5.96868e-05
5.24812e-05
4.27524e-05
3.2723e-05
2.43628e-05
1.96288e-05
2.11813e-05
3.70354e-05
1.08134e-05
4.65465e-07
2.70119e-07
7.26117e-06
2.13083e-05
4.82953e-05
6.96634e-05
7.76488e-05
7.94802e-05
7.76588e-05
7.37443e-05
6.90146e-05
6.46302e-05
6.11236e-05
5.85743e-05
5.6537e-05
5.43956e-05
5.17216e-05
4.84319e-05
4.47651e-05
4.10109e-05
3.74308e-05
3.45091e-05
3.38046e-05
4.04709e-05
4.92398e-05
5.04048e-05
5.13986e-05
4.74885e-05
3.98036e-05
3.11395e-05
2.3788e-05
1.98687e-05
2.2428e-05
3.93579e-05
1.06533e-05
4.83922e-07
3.04988e-07
7.28117e-06
2.15331e-05
4.92156e-05
7.03638e-05
7.77686e-05
7.89497e-05
7.63903e-05
7.2017e-05
6.73259e-05
6.35313e-05
6.1134e-05
6.01111e-05
5.98384e-05
5.93661e-05
5.78255e-05
5.48211e-05
5.05338e-05
4.54097e-05
3.99384e-05
3.48098e-05
3.16524e-05
3.47765e-05
3.96441e-05
4.04964e-05
4.26337e-05
4.1614e-05
3.63725e-05
2.92492e-05
2.31466e-05
2.01993e-05
2.37908e-05
4.15014e-05
1.04078e-05
4.96141e-07
3.42995e-07
7.35807e-06
2.19644e-05
5.03978e-05
7.11144e-05
7.77407e-05
7.79223e-05
7.45929e-05
7.00972e-05
6.60672e-05
6.34384e-05
6.23824e-05
6.25485e-05
6.32667e-05
6.36962e-05
6.30245e-05
6.06557e-05
5.63832e-05
5.04738e-05
4.36052e-05
3.68586e-05
3.19117e-05
3.19241e-05
3.38074e-05
3.39662e-05
3.53435e-05
3.56212e-05
3.25759e-05
2.72167e-05
2.23491e-05
2.04221e-05
2.52127e-05
4.31959e-05
1.01067e-05
4.98198e-07
3.66439e-07
7.43217e-06
2.19619e-05
4.9182e-05
7.05572e-05
7.74911e-05
7.73319e-05
7.42088e-05
7.0434e-05
6.73796e-05
6.56058e-05
6.50331e-05
6.53372e-05
6.61091e-05
6.67938e-05
6.67174e-05
6.51348e-05
6.14582e-05
5.56797e-05
4.84374e-05
4.09246e-05
3.44186e-05
3.01269e-05
2.99485e-05
3.05163e-05
3.00555e-05
3.03095e-05
2.86304e-05
2.50284e-05
2.1492e-05
2.06332e-05
2.66725e-05
4.40319e-05
9.82818e-06
4.96404e-07
3.68452e-07
7.41894e-06
2.19146e-05
4.87131e-05
6.94108e-05
7.74713e-05
7.84625e-05
7.6296e-05
7.32572e-05
7.04391e-05
6.82982e-05
6.70965e-05
6.68568e-05
6.74143e-05
6.83769e-05
6.90459e-05
6.85171e-05
6.6001e-05
6.11389e-05
5.41208e-05
4.58623e-05
3.78285e-05
3.15825e-05
2.90655e-05
2.75567e-05
2.6332e-05
2.62526e-05
2.51326e-05
2.28802e-05
2.06024e-05
2.08505e-05
2.80982e-05
4.40621e-05
9.57438e-06
4.92173e-07
3.56072e-07
7.18108e-06
2.1097e-05
4.67713e-05
6.70903e-05
7.5904e-05
7.86247e-05
7.80916e-05
7.6057e-05
7.35492e-05
7.1129e-05
6.91586e-05
6.79446e-05
6.76061e-05
6.80724e-05
6.89583e-05
6.95241e-05
6.87308e-05
6.55803e-05
5.96764e-05
5.15576e-05
4.26409e-05
3.47832e-05
3.03518e-05
2.65218e-05
2.36053e-05
2.31889e-05
2.25286e-05
2.09353e-05
1.96278e-05
2.09278e-05
2.9316e-05
4.35101e-05
9.3887e-06
4.93276e-07
3.20055e-07
6.87527e-06
1.93847e-05
4.2388e-05
6.35505e-05
7.34391e-05
7.74173e-05
7.81686e-05
7.72205e-05
7.53918e-05
7.31363e-05
7.07893e-05
6.86576e-05
6.70894e-05
6.62993e-05
6.63684e-05
6.70262e-05
6.74986e-05
6.66104e-05
6.32593e-05
5.70126e-05
4.85748e-05
3.95512e-05
3.16051e-05
2.74687e-05
2.3717e-05
2.07465e-05
2.00964e-05
1.92484e-05
1.87492e-05
2.0914e-05
3.0284e-05
4.26387e-05
9.24808e-06
5.00064e-07
2.7943e-07
6.58325e-06
1.78179e-05
3.87827e-05
6.08724e-05
7.24651e-05
7.70769e-05
7.83192e-05
7.76784e-05
7.60306e-05
7.38153e-05
7.12833e-05
6.87092e-05
6.64166e-05
6.46476e-05
6.36166e-05
6.33952e-05
6.38058e-05
6.42381e-05
6.35849e-05
6.0393e-05
5.37391e-05
4.43942e-05
3.50201e-05
3.01771e-05
2.47049e-05
1.98589e-05
1.84217e-05
1.78686e-05
1.79766e-05
2.0844e-05
3.09596e-05
4.17723e-05
9.18814e-06
5.17521e-07
2.53621e-07
6.4146e-06
1.7139e-05
3.71541e-05
5.92529e-05
7.25284e-05
7.83929e-05
8.01736e-05
7.9624e-05
7.78659e-05
7.55467e-05
7.30086e-05
7.01067e-05
6.72912e-05
6.52755e-05
6.37807e-05
6.27644e-05
6.2118e-05
6.18412e-05
6.14947e-05
6.0037e-05
5.59333e-05
4.8315e-05
3.92125e-05
3.48447e-05
2.76625e-05
2.03906e-05
1.77002e-05
1.68042e-05
1.73333e-05
2.07236e-05
3.13152e-05
4.10298e-05
9.18237e-06
5.46879e-07
2.52892e-07
6.28566e-06
1.65263e-05
3.57315e-05
5.87585e-05
7.35201e-05
8.03338e-05
8.28369e-05
8.25607e-05
8.02688e-05
7.59944e-05
7.12445e-05
6.86915e-05
6.78865e-05
6.74927e-05
6.71846e-05
6.67071e-05
6.59089e-05
6.48128e-05
6.35348e-05
6.16017e-05
5.77771e-05
5.09078e-05
4.24176e-05
3.90285e-05
3.10966e-05
2.19521e-05
1.79794e-05
1.63831e-05
1.67624e-05
2.04993e-05
3.15312e-05
4.05925e-05
9.19119e-06
5.85418e-07
2.78166e-07
6.38269e-06
1.69323e-05
3.74276e-05
6.15233e-05
7.54345e-05
8.15264e-05
8.36563e-05
8.18351e-05
7.6548e-05
7.2316e-05
7.05647e-05
6.95067e-05
6.97504e-05
7.09353e-05
7.21832e-05
7.27745e-05
7.25674e-05
7.12209e-05
6.89266e-05
6.58479e-05
6.12178e-05
5.40043e-05
4.57584e-05
4.28967e-05
3.44917e-05
2.37305e-05
1.84945e-05
1.62294e-05
1.64441e-05
2.03723e-05
3.17974e-05
4.02487e-05
9.13084e-06
6.20866e-07
3.41225e-07
6.59231e-06
1.78645e-05
4.06253e-05
6.47265e-05
7.62953e-05
8.0546e-05
7.88429e-05
7.45423e-05
7.12598e-05
6.79194e-05
6.56702e-05
6.63762e-05
6.95194e-05
7.41256e-05
7.87354e-05
8.2066e-05
8.33781e-05
8.27376e-05
7.98554e-05
7.51893e-05
6.77826e-05
5.88482e-05
5.51746e-05
5.02558e-05
3.6292e-05
2.52862e-05
1.93786e-05
1.65674e-05
1.65202e-05
2.0556e-05
3.25782e-05
3.98974e-05
8.96259e-06
6.43311e-07
4.57968e-07
7.15462e-06
1.9992e-05
4.6414e-05
6.86429e-05
7.58541e-05
7.63744e-05
7.46044e-05
7.04894e-05
6.44051e-05
5.97792e-05
5.93772e-05
6.35051e-05
7.08888e-05
7.9493e-05
8.71287e-05
9.21806e-05
9.40438e-05
9.28109e-05
8.86691e-05
8.35952e-05
7.90154e-05
7.29044e-05
6.64531e-05
5.39159e-05
3.81491e-05
2.6657e-05
1.96967e-05
1.65599e-05
1.65799e-05
2.0981e-05
3.40673e-05
3.88902e-05
8.70704e-06
6.39876e-07
6.17441e-07
7.94921e-06
2.42242e-05
5.25294e-05
7.1385e-05
7.71583e-05
7.52299e-05
6.7628e-05
5.81032e-05
5.2133e-05
5.21857e-05
5.72548e-05
6.63651e-05
7.76877e-05
8.82054e-05
9.64033e-05
0.000101162
0.000102216
0.000100332
9.66597e-05
9.3198e-05
8.85987e-05
8.36303e-05
7.18689e-05
5.48284e-05
3.96523e-05
2.78084e-05
2.03163e-05
1.68292e-05
1.69164e-05
2.21142e-05
3.72843e-05
3.73804e-05
8.24857e-06
5.9679e-07
6.47513e-07
8.14341e-06
2.51343e-05
5.58097e-05
7.18644e-05
7.08348e-05
6.38311e-05
5.83937e-05
5.67979e-05
5.60697e-05
5.52777e-05
5.64756e-05
6.03737e-05
6.79894e-05
7.80554e-05
8.7885e-05
9.56626e-05
9.97653e-05
0.000100332
9.81632e-05
9.43369e-05
9.02147e-05
8.81e-05
7.45884e-05
5.42069e-05
3.89815e-05
2.78857e-05
2.07094e-05
1.73042e-05
1.76803e-05
2.3532e-05
3.93351e-05
3.41287e-05
7.75163e-06
5.2865e-07
6.22144e-07
8.16705e-06
2.66905e-05
5.61184e-05
6.73671e-05
6.88045e-05
7.02934e-05
6.8769e-05
6.35086e-05
5.91949e-05
5.68753e-05
5.59778e-05
5.61876e-05
5.77218e-05
6.17875e-05
6.82662e-05
7.62278e-05
8.37027e-05
9.00266e-05
9.25141e-05
9.10093e-05
8.88641e-05
8.74614e-05
7.34794e-05
5.35641e-05
3.89858e-05
2.84462e-05
2.15481e-05
1.8261e-05
1.88907e-05
2.57972e-05
4.32141e-05
3.24782e-05
7.51759e-06
4.79545e-07
5.25362e-07
7.88068e-06
2.44452e-05
5.09472e-05
6.58596e-05
7.12013e-05
7.24349e-05
6.95439e-05
6.62647e-05
6.41418e-05
6.16163e-05
5.86266e-05
5.56886e-05
5.35295e-05
5.28345e-05
5.41974e-05
5.74327e-05
6.30945e-05
6.94312e-05
7.54937e-05
7.95454e-05
8.15188e-05
8.04998e-05
6.80075e-05
5.14868e-05
3.89575e-05
2.9436e-05
2.27845e-05
1.9465e-05
2.02283e-05
2.80588e-05
4.59263e-05
3.16685e-05
7.45404e-06
4.65054e-07
4.36118e-07
7.42475e-06
2.19961e-05
4.67492e-05
6.39404e-05
7.04749e-05
7.17842e-05
7.06839e-05
6.84607e-05
6.72101e-05
6.5194e-05
6.2783e-05
5.9944e-05
5.67131e-05
5.32537e-05
5.013e-05
4.81127e-05
4.77179e-05
4.96228e-05
5.36708e-05
5.90685e-05
6.37698e-05
6.48047e-05
5.83134e-05
4.8107e-05
3.84322e-05
3.00222e-05
2.39925e-05
2.09311e-05
2.21199e-05
3.07399e-05
4.81715e-05
3.2107e-05
7.57969e-06
4.68083e-07
3.86758e-07
7.12824e-06
2.06984e-05
4.52444e-05
6.48721e-05
7.28551e-05
7.52699e-05
7.52637e-05
7.3626e-05
7.12223e-05
6.84682e-05
6.54548e-05
6.25638e-05
5.98454e-05
5.70926e-05
5.39902e-05
5.04328e-05
4.67591e-05
4.36662e-05
4.20367e-05
4.21684e-05
4.38025e-05
4.60736e-05
4.70039e-05
4.29774e-05
3.62161e-05
3.0135e-05
2.48935e-05
2.22309e-05
2.37304e-05
3.28336e-05
4.98017e-05
3.24182e-05
7.79252e-06
4.86827e-07
3.70865e-07
7.01337e-06
2.00453e-05
4.38067e-05
6.45564e-05
7.41574e-05
7.74501e-05
7.84059e-05
7.89385e-05
7.80882e-05
7.61547e-05
7.3329e-05
6.98329e-05
6.58975e-05
6.18334e-05
5.77906e-05
5.3811e-05
4.96852e-05
4.5305e-05
4.10095e-05
3.73088e-05
3.47048e-05
3.36711e-05
3.54382e-05
3.55964e-05
3.25925e-05
2.90119e-05
2.53284e-05
2.32755e-05
2.52393e-05
3.45716e-05
5.04588e-05
3.37072e-05
8.03978e-06
5.14367e-07
3.4817e-07
6.65889e-06
1.89369e-05
4.22043e-05
6.31224e-05
7.3704e-05
7.90321e-05
8.15276e-05
8.19663e-05
8.12795e-05
7.9969e-05
7.82877e-05
7.62588e-05
7.3722e-05
7.04431e-05
6.62815e-05
6.12003e-05
5.54415e-05
4.94002e-05
4.33381e-05
3.74836e-05
3.22374e-05
2.85868e-05
2.89459e-05
2.95342e-05
2.80497e-05
2.67818e-05
2.4793e-05
2.37789e-05
2.61676e-05
3.5442e-05
5.06292e-05
3.50626e-05
8.2859e-06
5.42309e-07
3.46684e-07
6.59786e-06
1.85081e-05
4.08994e-05
6.2904e-05
7.52254e-05
8.11638e-05
8.35772e-05
8.37725e-05
8.26197e-05
8.09894e-05
7.92784e-05
7.76564e-05
7.62076e-05
7.46615e-05
7.25424e-05
6.91349e-05
6.39423e-05
5.70714e-05
4.89951e-05
4.05929e-05
3.29719e-05
2.74749e-05
2.65877e-05
2.58271e-05
2.40796e-05
2.41536e-05
2.36632e-05
2.35789e-05
2.62359e-05
3.52937e-05
5.02759e-05
3.64741e-05
8.51611e-06
5.74135e-07
3.53919e-07
6.52688e-06
1.83215e-05
4.1129e-05
6.4043e-05
7.6722e-05
8.27802e-05
8.49889e-05
8.50192e-05
8.42552e-05
8.2989e-05
8.15144e-05
8.0059e-05
7.87165e-05
7.75222e-05
7.61743e-05
7.42763e-05
7.10271e-05
6.52319e-05
5.63613e-05
4.60497e-05
3.61009e-05
2.83432e-05
2.56164e-05
2.36927e-05
2.16874e-05
2.1802e-05
2.20982e-05
2.28139e-05
2.60422e-05
3.50819e-05
5.00724e-05
3.72914e-05
8.66676e-06
6.00895e-07
3.74346e-07
6.62161e-06
1.89407e-05
4.27882e-05
6.52922e-05
7.75317e-05
8.3642e-05
8.62459e-05
8.64674e-05
8.56779e-05
8.42736e-05
8.27204e-05
8.13414e-05
8.02288e-05
7.93921e-05
7.8511e-05
7.71513e-05
7.47062e-05
7.04514e-05
6.35979e-05
5.297e-05
4.08704e-05
3.1155e-05
2.62671e-05
2.22413e-05
1.97026e-05
1.98871e-05
2.05855e-05
2.19341e-05
2.5604e-05
3.4889e-05
5.01092e-05
3.75363e-05
8.72491e-06
6.15338e-07
3.9268e-07
6.65828e-06
1.92672e-05
4.38563e-05
6.62908e-05
7.82338e-05
8.42534e-05
8.70218e-05
8.76836e-05
8.68831e-05
8.53963e-05
8.38847e-05
8.27723e-05
8.22677e-05
8.2237e-05
8.23175e-05
8.17217e-05
7.9678e-05
7.54786e-05
6.87277e-05
5.93846e-05
4.71154e-05
3.49192e-05
2.7707e-05
2.24653e-05
1.87644e-05
1.82556e-05
1.93587e-05
2.11383e-05
2.52074e-05
3.48005e-05
5.03101e-05
3.75044e-05
8.74768e-06
6.24353e-07
4.17176e-07
6.80894e-06
1.99329e-05
4.55675e-05
6.77267e-05
7.89249e-05
8.49362e-05
8.75674e-05
8.82587e-05
8.76709e-05
8.64746e-05
8.52669e-05
8.45064e-05
8.45232e-05
8.53562e-05
8.65854e-05
8.73293e-05
8.6445e-05
8.29798e-05
7.67081e-05
6.72755e-05
5.49143e-05
4.10686e-05
2.92197e-05
2.29882e-05
1.90621e-05
1.72036e-05
1.80675e-05
2.01978e-05
2.46629e-05
3.47134e-05
5.07154e-05
3.69204e-05
8.68128e-06
6.24977e-07
4.43848e-07
6.99077e-06
2.08376e-05
4.70168e-05
6.81505e-05
7.91928e-05
8.47808e-05
8.72481e-05
8.80261e-05
8.77758e-05
8.70132e-05
8.62769e-05
8.58951e-05
8.61214e-05
8.70991e-05
8.86118e-05
8.98769e-05
8.97136e-05
8.70598e-05
8.21044e-05
7.42634e-05
6.18881e-05
4.64642e-05
3.2278e-05
2.35281e-05
1.85934e-05
1.66182e-05
1.73039e-05
1.96424e-05
2.46946e-05
3.56477e-05
5.18285e-05
3.57503e-05
8.56165e-06
6.13159e-07
4.56223e-07
7.06729e-06
2.10614e-05
4.76902e-05
6.87597e-05
7.87795e-05
8.36333e-05
8.58121e-05
8.67706e-05
8.71567e-05
8.74144e-05
8.75426e-05
8.77654e-05
8.82894e-05
8.92899e-05
9.06737e-05
9.18101e-05
9.16549e-05
8.92094e-05
8.48401e-05
7.8155e-05
6.70214e-05
5.18253e-05
3.62161e-05
2.48789e-05
1.85811e-05
1.62581e-05
1.6718e-05
1.91581e-05
2.45267e-05
3.59844e-05
5.23261e-05
3.48679e-05
8.43091e-06
5.92533e-07
4.56646e-07
7.12181e-06
2.16007e-05
4.89762e-05
6.86716e-05
7.76946e-05
8.21805e-05
8.45541e-05
8.60073e-05
8.69336e-05
8.76841e-05
8.82392e-05
8.87356e-05
8.93666e-05
9.03116e-05
9.15589e-05
9.26724e-05
9.27114e-05
9.07082e-05
8.69102e-05
8.09671e-05
7.07776e-05
5.61082e-05
3.99656e-05
2.69351e-05
1.91924e-05
1.61652e-05
1.62112e-05
1.86162e-05
2.42082e-05
3.60683e-05
5.28178e-05
3.36263e-05
8.29154e-06
5.75199e-07
4.48888e-07
7.13846e-06
2.18181e-05
4.90908e-05
6.82477e-05
7.67532e-05
8.09629e-05
8.33006e-05
8.50051e-05
8.64456e-05
8.76478e-05
8.87567e-05
8.96022e-05
9.03593e-05
9.12625e-05
9.24238e-05
9.36167e-05
9.4032e-05
9.26145e-05
8.93537e-05
8.38477e-05
7.41519e-05
5.98357e-05
4.32201e-05
2.91314e-05
2.01823e-05
1.62587e-05
1.59332e-05
1.81828e-05
2.38054e-05
3.60158e-05
5.28894e-05
3.33555e-05
8.27555e-06
5.71079e-07
4.38925e-07
7.09803e-06
2.16705e-05
4.8873e-05
6.76293e-05
7.5472e-05
7.91676e-05
8.12748e-05
8.31057e-05
8.5016e-05
8.69676e-05
8.8771e-05
9.0174e-05
9.12409e-05
9.22168e-05
9.33479e-05
9.46103e-05
9.54043e-05
9.47729e-05
9.23187e-05
8.73147e-05
7.78808e-05
6.39048e-05
4.76652e-05
3.3726e-05
2.3072e-05
1.70401e-05
1.56328e-05
1.74759e-05
2.30806e-05
3.54583e-05
5.26478e-05
3.33634e-05
8.2757e-06
5.75373e-07
4.38468e-07
7.10099e-06
2.17589e-05
4.91662e-05
6.72188e-05
7.41342e-05
7.70627e-05
7.89101e-05
8.09194e-05
8.3477e-05
8.6333e-05
8.90158e-05
9.13641e-05
9.3082e-05
9.43715e-05
9.55302e-05
9.67408e-05
9.76509e-05
9.74995e-05
9.5712e-05
9.11425e-05
8.16188e-05
6.73299e-05
5.11943e-05
3.8026e-05
2.62615e-05
1.85556e-05
1.58665e-05
1.70399e-05
2.23025e-05
3.45415e-05
5.26534e-05
3.33898e-05
8.30816e-06
5.94787e-07
4.40368e-07
7.11925e-06
2.19031e-05
4.93771e-05
6.66136e-05
7.25541e-05
7.46334e-05
7.60234e-05
7.81416e-05
8.13682e-05
8.52883e-05
8.91506e-05
9.23475e-05
9.48657e-05
9.66633e-05
9.80686e-05
9.93756e-05
0.000100481
0.00010083
9.98078e-05
9.57698e-05
8.56383e-05
7.00262e-05
5.51368e-05
4.15213e-05
2.84561e-05
1.99549e-05
1.64134e-05
1.69277e-05
2.20149e-05
3.4858e-05
5.32073e-05
3.30749e-05
8.29097e-06
6.04598e-07
4.44245e-07
7.1649e-06
2.21479e-05
4.97736e-05
6.6081e-05
7.08858e-05
7.18597e-05
7.25392e-05
7.45828e-05
7.83841e-05
8.3335e-05
8.84256e-05
9.28111e-05
9.60931e-05
9.84701e-05
0.000100197
0.000101645
0.000102982
0.000103815
0.000103598
0.000100357
9.04241e-05
7.43556e-05
5.84486e-05
4.23614e-05
2.91842e-05
2.10563e-05
1.7141e-05
1.72814e-05
2.24967e-05
3.60911e-05
5.40945e-05
3.17478e-05
8.19411e-06
6.03912e-07
4.47424e-07
7.19092e-06
2.22855e-05
5.00457e-05
6.54986e-05
6.90445e-05
6.87002e-05
6.85049e-05
7.04145e-05
7.48188e-05
8.08773e-05
8.72697e-05
9.28965e-05
9.72003e-05
0.00010016
0.00010214
0.000103655
0.000105088
0.000106281
0.000106927
0.000104922
9.54544e-05
7.77472e-05
5.86938e-05
4.11744e-05
2.88047e-05
2.15381e-05
1.78928e-05
1.81613e-05
2.39561e-05
3.89864e-05
5.49944e-05
3.07745e-05
8.10802e-06
5.89992e-07
4.52692e-07
7.24337e-06
2.244e-05
5.01978e-05
6.4886e-05
6.71863e-05
6.5463e-05
6.43142e-05
6.60231e-05
7.09656e-05
7.81166e-05
8.58357e-05
9.26986e-05
9.79374e-05
0.000101459
0.000103739
0.000105248
0.000106603
0.000107989
0.00010946
0.000109162
0.000101159
8.12322e-05
5.77031e-05
3.93833e-05
2.78623e-05
2.13672e-05
1.85237e-05
1.94496e-05
2.61455e-05
4.17404e-05
5.53706e-05
2.96312e-05
7.96334e-06
5.64995e-07
4.58159e-07
7.28645e-06
2.26866e-05
5.05645e-05
6.43311e-05
6.54015e-05
6.24224e-05
6.03885e-05
6.18124e-05
6.70533e-05
7.50502e-05
8.39668e-05
9.20649e-05
9.83101e-05
0.000102477
0.000104933
0.000106468
0.000107568
0.000108599
0.00010972
0.000109452
0.000102442
8.44227e-05
5.97033e-05
3.96541e-05
2.76373e-05
2.14014e-05
1.90625e-05
2.03717e-05
2.72887e-05
4.26106e-05
5.52349e-05
2.94751e-05
7.89372e-06
5.48913e-07
4.59483e-07
7.3133e-06
2.29541e-05
5.09353e-05
6.37033e-05
6.36153e-05
5.96719e-05
5.69067e-05
5.78734e-05
6.29796e-05
7.13164e-05
8.1065e-05
9.02709e-05
9.75977e-05
0.000102592
0.000105565
0.000107251
0.000108305
0.000109093
0.000109943
0.000110305
0.000106079
8.92676e-05
6.4411e-05
4.28174e-05
2.89984e-05
2.18447e-05
1.92684e-05
2.06901e-05
2.73061e-05
4.14753e-05
5.48271e-05
2.97201e-05
7.90301e-06
5.48672e-07
4.58552e-07
7.33779e-06
2.31164e-05
5.0987e-05
6.30708e-05
6.23583e-05
5.78276e-05
5.43266e-05
5.4424e-05
5.88109e-05
6.68755e-05
7.70245e-05
8.71936e-05
9.57153e-05
0.000101841
0.000105709
0.000108005
0.000109497
0.000110545
0.000111277
0.000111696
0.000108608
9.54848e-05
7.28684e-05
4.95318e-05
3.27829e-05
2.32783e-05
1.94328e-05
2.01018e-05
2.60755e-05
4.02147e-05
5.47324e-05
3.07384e-05
8.03021e-06
5.66823e-07
4.55075e-07
7.32628e-06
2.31486e-05
5.07776e-05
6.25201e-05
6.17181e-05
5.69219e-05
5.27121e-05
5.16638e-05
5.48567e-05
6.21005e-05
7.22501e-05
8.32809e-05
9.31586e-05
0.000100691
0.000105789
0.000109056
0.000111262
0.000112985
0.000114259
0.000114988
0.000112531
0.000101557
8.04797e-05
5.68141e-05
3.76524e-05
2.59364e-05
2.04879e-05
1.99529e-05
2.52814e-05
3.88911e-05
5.41527e-05
3.17841e-05
8.13288e-06
5.90911e-07
4.5154e-07
7.34193e-06
2.32408e-05
5.07564e-05
6.24176e-05
6.16855e-05
5.68248e-05
5.20632e-05
4.98274e-05
5.14378e-05
5.73511e-05
6.68072e-05
7.82721e-05
8.95024e-05
9.86847e-05
0.000105238
0.000109574
0.000112557
0.000114941
0.000116965
0.000118334
0.000116498
0.000105125
8.44863e-05
6.19208e-05
4.27068e-05
2.90195e-05
2.19206e-05
2.06299e-05
2.49833e-05
3.77673e-05
5.48059e-05
3.17115e-05
8.15217e-06
5.98617e-07
4.45669e-07
7.34015e-06
2.33167e-05
5.07348e-05
6.24025e-05
6.19617e-05
5.73451e-05
5.24492e-05
4.95001e-05
4.91137e-05
5.25163e-05
6.05903e-05
7.19056e-05
8.40872e-05
9.50359e-05
0.000103344
0.000108982
0.000112797
0.000115795
0.00011857
0.000120712
0.000118822
0.000107515
8.71761e-05
6.42327e-05
4.47869e-05
3.13719e-05
2.36457e-05
2.12766e-05
2.53819e-05
3.90518e-05
5.53629e-05
3.13017e-05
8.13712e-06
5.94699e-07
4.35077e-07
7.31263e-06
2.32462e-05
5.04907e-05
6.23976e-05
6.25255e-05
5.83969e-05
5.34758e-05
4.97415e-05
4.80791e-05
4.91938e-05
5.41796e-05
6.39048e-05
7.67663e-05
8.91298e-05
9.91968e-05
0.000106261
0.000110946
0.000114535
0.000117757
0.000119984
0.000117388
0.000106921
8.85863e-05
6.59341e-05
4.59081e-05
3.21981e-05
2.49002e-05
2.29645e-05
2.71e-05
4.05399e-05
5.55948e-05
3.04767e-05
8.07923e-06
5.72358e-07
4.22028e-07
7.26933e-06
2.31418e-05
5.02803e-05
6.24772e-05
6.323e-05
5.98186e-05
5.52481e-05
5.07224e-05
4.76173e-05
4.73593e-05
5.01947e-05
5.63117e-05
6.68854e-05
8.04535e-05
9.2392e-05
0.000101104
0.000106744
0.000110454
0.000113556
0.000114793
0.000112385
0.000105069
9.05463e-05
6.99701e-05
4.9405e-05
3.44609e-05
2.60735e-05
2.36995e-05
2.79935e-05
4.11444e-05
5.54978e-05
3.13553e-05
8.15589e-06
5.68046e-07
4.07873e-07
7.21491e-06
2.30119e-05
4.99588e-05
6.25155e-05
6.40155e-05
6.14303e-05
5.74166e-05
5.29772e-05
4.89472e-05
4.61602e-05
4.63033e-05
5.03105e-05
5.80379e-05
6.94174e-05
8.27576e-05
9.3807e-05
0.00010118
0.000105948
0.000109552
0.000110907
0.000108033
0.000101807
9.18744e-05
7.62434e-05
5.66054e-05
3.93306e-05
2.89704e-05
2.50165e-05
2.73075e-05
3.84053e-05
5.49203e-05
3.21882e-05
8.252e-06
5.81253e-07
3.94643e-07
7.17398e-06
2.29362e-05
4.97144e-05
6.28036e-05
6.52685e-05
6.37711e-05
6.04971e-05
5.65289e-05
5.20902e-05
4.77719e-05
4.46802e-05
4.47739e-05
4.95006e-05
5.87733e-05
7.11284e-05
8.41479e-05
9.44581e-05
0.000101267
0.000106444
0.000106697
0.00010261
9.85379e-05
9.23968e-05
8.19992e-05
6.601e-05
4.72594e-05
3.356e-05
2.71071e-05
2.76048e-05
3.72148e-05
5.39317e-05
3.64513e-05
8.63156e-06
6.38137e-07
3.85177e-07
7.14543e-06
2.29107e-05
4.9551e-05
6.31425e-05
6.65089e-05
6.5998e-05
6.3676e-05
6.04372e-05
5.63341e-05
5.15289e-05
4.68636e-05
4.34969e-05
4.34301e-05
4.87505e-05
5.92664e-05
7.25514e-05
8.49839e-05
9.41515e-05
0.000101247
0.000101991
9.78217e-05
9.46781e-05
9.0622e-05
8.35222e-05
7.21318e-05
5.67927e-05
4.05073e-05
3.04011e-05
2.86166e-05
3.5632e-05
5.26955e-05
3.83104e-05
8.78383e-06
6.81856e-07
3.79634e-07
7.15031e-06
2.29838e-05
4.94188e-05
6.34294e-05
6.77659e-05
6.83975e-05
6.71623e-05
6.48166e-05
6.12491e-05
5.64895e-05
5.10593e-05
4.57557e-05
4.21934e-05
4.21706e-05
4.80849e-05
5.94707e-05
7.32031e-05
8.48709e-05
9.37007e-05
9.53191e-05
9.19287e-05
8.93964e-05
8.57308e-05
8.00926e-05
7.11258e-05
5.84386e-05
4.4943e-05
3.46855e-05
3.15217e-05
3.9426e-05
5.76454e-05
3.67038e-05
8.79924e-06
6.86884e-07
3.71237e-07
7.13613e-06
2.29612e-05
4.92588e-05
6.3797e-05
6.90347e-05
7.05344e-05
7.0107e-05
6.85012e-05
6.60461e-05
6.21728e-05
5.67695e-05
5.04505e-05
4.43083e-05
4.04114e-05
4.06657e-05
4.71427e-05
5.88378e-05
7.17527e-05
8.19401e-05
8.53952e-05
8.38311e-05
8.16162e-05
7.83145e-05
7.32224e-05
6.55926e-05
5.58012e-05
4.56079e-05
3.84785e-05
3.82169e-05
4.82606e-05
6.0949e-05
3.57144e-05
8.69184e-06
6.61556e-07
3.60697e-07
7.09291e-06
2.28472e-05
4.91738e-05
6.43184e-05
7.03398e-05
7.26919e-05
7.30761e-05
7.21133e-05
7.00951e-05
6.72321e-05
6.29978e-05
5.65999e-05
4.91601e-05
4.25014e-05
3.85226e-05
3.88955e-05
4.54591e-05
5.67751e-05
6.77976e-05
7.37095e-05
7.48397e-05
7.30835e-05
6.99149e-05
6.57363e-05
6.03334e-05
5.36521e-05
4.71753e-05
4.38241e-05
4.66167e-05
5.71023e-05
6.42832e-05
3.38684e-05
8.6368e-06
6.14589e-07
3.49202e-07
7.01839e-06
2.26069e-05
4.89745e-05
6.47147e-05
7.14282e-05
7.44932e-05
7.56387e-05
7.55426e-05
7.43134e-05
7.1857e-05
6.81451e-05
6.31541e-05
5.59112e-05
4.75035e-05
4.05332e-05
3.67516e-05
3.75379e-05
4.37827e-05
5.37757e-05
6.25369e-05
6.63026e-05
6.56509e-05
6.30969e-05
6.00013e-05
5.65167e-05
5.26592e-05
4.94251e-05
4.89727e-05
5.38756e-05
6.41189e-05
6.56825e-05