/*--------------------------------*- C++ -*----------------------------------*\
| =========                 |                                                 |
| \\      /  F ield         | OpenFOAM: The Open Source CFD Toolbox           |
|  \\    /   O peration     | Version:  2.0.x                                 |
|   \\  /    A nd           | Web:      www.OpenFOAM.org                      |
|    \\/     M anipulation  |                                                 |
\*---------------------------------------------------------------------------*/
FoamFile
{
    version     2.0;
    format      ascii;
    class       volScalarField;
    location    "750";
    object      k;
}
// * * * * * * * * * * * * * * * * * * * * * * * * * * * * * * * * * * * * * //

dimensions      [0 2 -2 0 0 0 0];

internalField   nonuniform List<scalar> 
78750
(
8.80581e-05
0.000360088
0.000445162
0.000470008
0.000484018
0.000496315
0.00051811
0.000541374
0.000562624
0.000580087
0.000596147
0.000610637
0.000623248
0.000633988
0.000642969
0.000650264
0.000656189
0.000660984
0.000664493
0.000666871
0.000667749
0.0006669
0.000667424
0.00066685
0.000666172
0.000662972
0.000657787
0.000650986
0.00064194
0.000631643
0.000619862
0.000605606
0.000585231
0.000507244
0.000117194
6.79473e-05
0.000242959
0.000314369
0.000336123
0.000346214
0.000391597
0.00045289
0.000512711
0.00056659
0.000616672
0.000661131
0.00069964
0.000732042
0.000758509
0.000779528
0.000795429
0.000806486
0.000813329
0.000816322
0.000815885
0.000811745
0.00080384
0.000790775
0.000774474
0.000756182
0.000737789
0.000720043
0.000702067
0.000681862
0.000660478
0.000638894
0.000614485
0.000581208
0.000493831
0.000257461
1.2618e-05
9.70506e-05
0.000165514
0.000229358
0.000308337
0.000394883
0.000500158
0.000590272
0.000661032
0.000719485
0.000765856
0.000801859
0.00082917
0.000848815
0.000861584
0.000868235
0.000869074
0.000866789
0.000859191
0.000847983
0.00083377
0.000817399
0.000799106
0.000778525
0.000755898
0.000732733
0.000708345
0.000681746
0.000654205
0.00062989
0.000608912
0.000587973
0.000545767
0.000466692
0.000317173
1.56895e-05
0.000173684
0.000317328
0.000460224
0.000594468
0.000703457
0.000766436
0.000815786
0.000856182
0.000885217
0.00090643
0.000921506
0.000931353
0.000936619
0.000937721
0.000935782
0.000929192
0.000919239
0.000906358
0.00089063
0.000872048
0.000850593
0.000826374
0.000799468
0.000769948
0.000738307
0.000706059
0.00067197
0.000637933
0.000607573
0.000580762
0.000554482
0.000512663
0.000449084
0.000347573
1.76544e-05
0.000215232
0.000404487
0.000556384
0.000664189
0.000737103
0.00079257
0.000837946
0.00087364
0.000902392
0.000926302
0.000945844
0.000960875
0.00097079
0.000975366
0.000974751
0.000968709
0.000957904
0.000942499
0.000922775
0.000899107
0.000871931
0.000841645
0.000808607
0.000773308
0.000736671
0.000699189
0.000659425
0.000620958
0.000586998
0.000556729
0.000527445
0.000486865
0.000434547
0.000356305
4.71958e-05
0.000313452
0.000541542
0.000700695
0.000801303
0.000865806
0.000911129
0.000945398
0.000976327
0.00100423
0.00102712
0.00104429
0.0010557
0.00106117
0.0010606
0.0010539
0.0010411
0.00102286
0.000999657
0.000972241
0.00094128
0.000907194
0.000870218
0.0008306
0.000788955
0.000745782
0.00070061
0.000654442
0.000612243
0.000574959
0.000540888
0.000509172
0.000471037
0.000426041
0.000360653
6.67143e-05
0.000372631
0.000609322
0.000750918
0.000832101
0.000884025
0.000922883
0.000955941
0.000988172
0.00101803
0.00104459
0.00106563
0.00108237
0.00109255
0.00109523
0.00109146
0.00108001
0.00106206
0.00103848
0.0010104
0.000978539
0.000943227
0.000904599
0.00086273
0.000817571
0.000768315
0.00071461
0.000661753
0.000614236
0.000570784
0.000529798
0.000493709
0.000457221
0.000417071
0.000358143
0.000106732
0.000453404
0.000704085
0.000840106
0.000912264
0.000955604
0.000985356
0.00100833
0.00102678
0.00105015
0.00108135
0.00111367
0.00113683
0.00115153
0.00115763
0.00115573
0.00114563
0.00112815
0.00110428
0.00107543
0.00104259
0.00100617
0.000966258
0.000922726
0.000875119
0.000822305
0.000763796
0.000703361
0.000645305
0.00058823
0.000534883
0.000489511
0.000450459
0.000411532
0.000355987
0.000136481
0.000512958
0.000755301
0.000875524
0.000938073
0.000974938
0.000997723
0.0010145
0.00103288
0.00105745
0.00108724
0.00111936
0.00114953
0.00117182
0.00118512
0.00118854
0.00118317
0.00116972
0.00114895
0.00112226
0.00109091
0.0010555
0.00101623
0.000972981
0.000925261
0.000871923
0.000813469
0.00075195
0.000685787
0.000613888
0.000546086
0.000490421
0.000447372
0.000407671
0.000353669
0.000172376
0.000571244
0.000818259
0.000936232
0.000996481
0.00103027
0.00104555
0.00104691
0.0010465
0.00105737
0.00108485
0.00111859
0.00115049
0.00117764
0.00119812
0.00121204
0.00121829
0.00121455
0.00120047
0.00117877
0.00115086
0.00111776
0.00107995
0.00103752
0.000990253
0.000937616
0.000880597
0.000818619
0.000746468
0.000661334
0.000573847
0.000501063
0.000449517
0.000407706
0.00035384
0.000194475
0.000604265
0.000846805
0.000962757
0.00102373
0.00105834
0.00107254
0.00106958
0.00105716
0.00105252
0.00106338
0.0010928
0.00112956
0.00116467
0.00119303
0.00121263
0.00122386
0.00122712
0.00122346
0.00121043
0.00118859
0.00116052
0.00112691
0.00108813
0.00104421
0.000994741
0.000939949
0.000877801
0.000802033
0.000708208
0.000603291
0.000515493
0.000455788
0.000409308
0.000355523
0.000214374
0.000634135
0.000885669
0.00100743
0.0010727
0.00111058
0.0011256
0.00112008
0.00109731
0.00106819
0.00105244
0.00105732
0.00108356
0.00111973
0.00115683
0.00118834
0.00121163
0.00122564
0.0012301
0.00122627
0.00121502
0.00119553
0.0011683
0.0011347
0.00109509
0.00105002
0.000998442
0.000935888
0.000857002
0.000757637
0.000641576
0.000536585
0.000467041
0.00041542
0.0003598
0.000221859
0.000640412
0.000897088
0.00102589
0.00109707
0.0011405
0.00116203
0.00116373
0.00114655
0.00111415
0.00107583
0.00104982
0.00104916
0.00106809
0.00110277
0.00113904
0.00117147
0.00119669
0.00121335
0.00122075
0.00121861
0.0012076
0.00118909
0.00116321
0.00113012
0.00109018
0.0010421
0.000981272
0.000902206
0.000800407
0.000678029
0.000560051
0.000481875
0.000424677
0.000366148
0.000226462
0.00065015
0.000918122
0.00105617
0.00113323
0.00118132
0.00120807
0.00121404
0.00120216
0.00117402
0.00113346
0.0010876
0.00105018
0.00103787
0.00104556
0.00107219
0.00110714
0.00114052
0.00116827
0.00118811
0.00119876
0.0011997
0.00119163
0.00117459
0.00114975
0.00111654
0.00107259
0.00101433
0.000937119
0.000835426
0.000710242
0.000584608
0.000499284
0.000436527
0.000373859
0.000226383
0.000650954
0.00092149
0.00106665
0.00115053
0.00120497
0.00123884
0.00125285
0.00125058
0.00123198
0.0011992
0.00115495
0.0011038
0.00105535
0.00102516
0.00102067
0.00103371
0.00106415
0.0010966
0.00112614
0.00114898
0.0011632
0.00116795
0.0011632
0.00114841
0.0011236
0.0010867
0.00103424
0.000961249
0.000862274
0.000737787
0.000609534
0.000519143
0.000451107
0.00038318
0.000222694
0.000651049
0.00093154
0.00108512
0.00117483
0.00123398
0.00127279
0.00129393
0.00129759
0.00128627
0.00126113
0.00122432
0.00117798
0.00112472
0.00106977
0.00102259
0.000995151
0.000991833
0.0010086
0.00103916
0.00107017
0.00109671
0.00111557
0.00112483
0.00112342
0.00110986
0.00108228
0.00103719
0.000971827
0.000879657
0.000759178
0.000631941
0.000539443
0.000467376
0.000394305
0.000212649
0.000646588
0.000932657
0.00109296
0.00118851
0.00125318
0.00129785
0.00132546
0.00133613
0.00133228
0.0013141
0.00128355
0.001243
0.00119471
0.00114076
0.00108417
0.00102937
0.000984829
0.000959462
0.000957997
0.000978102
0.00100787
0.00103692
0.00105934
0.00107195
0.00107259
0.00105971
0.00102777
0.000970686
0.000887239
0.000775072
0.000652378
0.000560599
0.000485729
0.000407648
0.000208073
0.000646677
0.000942951
0.00111196
0.00121262
0.00128066
0.00132849
0.00135962
0.00137471
0.00137485
0.00136054
0.00133321
0.00129524
0.00124931
0.00119796
0.00114328
0.00108742
0.00103146
0.000979051
0.000938506
0.000917403
0.000922509
0.000947465
0.000974928
0.000998368
0.00101357
0.00101567
0.00100141
0.000961041
0.000887821
0.000784951
0.000669024
0.00058034
0.000504723
0.00042395
0.000210358
0.000655638
0.000958808
0.00113245
0.00123629
0.00130716
0.00135771
0.00139143
0.00140939
0.00141169
0.00139972
0.0013737
0.00133659
0.0012911
0.00123985
0.00118512
0.00112897
0.00107323
0.00101785
0.000964379
0.000917866
0.000887318
0.000881154
0.000895172
0.000920155
0.000944722
0.000960677
0.000960514
0.000937943
0.000881688
0.0007914
0.000684097
0.000599725
0.000524693
0.000442661
0.00022701
0.000677634
0.000989114
0.00116651
0.00127183
0.00134346
0.00139455
0.00142857
0.00144644
0.00144822
0.00143573
0.00140853
0.00137038
0.00132433
0.00127294
0.00121803
0.00116099
0.00110346
0.00104576
0.000988549
0.000933844
0.00088688
0.00085746
0.000849378
0.000857762
0.00088052
0.000902921
0.000914687
0.000906948
0.000865935
0.000789332
0.000695123
0.000617251
0.000544394
0.000460316
0.000256387
0.000708394
0.00101858
0.00119496
0.0013004
0.00137294
0.00142518
0.00146023
0.00147882
0.00148091
0.00146808
0.00144094
0.0014031
0.00135754
0.00130671
0.00125217
0.00119485
0.00113564
0.0010747
0.0010124
0.000950419
0.000893199
0.000850184
0.000827497
0.000823225
0.000833082
0.00085447
0.000871946
0.000873146
0.000848977
0.000787955
0.000703761
0.000632392
0.000562098
0.000472042
0.000288427
0.0007346
0.00104095
0.00121803
0.00132485
0.00139925
0.00145345
0.00149044
0.00151099
0.00151537
0.00150477
0.00148128
0.00144722
0.00140483
0.00135601
0.00130223
0.00124445
0.00118338
0.00111909
0.00105131
0.000981279
0.00091323
0.00085654
0.000820021
0.000803571
0.000804447
0.00081906
0.000837641
0.000845352
0.000831179
0.000782774
0.000710233
0.000645182
0.000576179
0.000474077
0.000308198
0.000738337
0.00104157
0.00122142
0.00133475
0.00141367
0.00147214
0.0015137
0.0015395
0.00154969
0.00154632
0.00153034
0.00150323
0.00146649
0.00142167
0.0013702
0.00131319
0.00125136
0.00118498
0.00111323
0.00103659
0.000958201
0.000885343
0.000829625
0.000798721
0.000787961
0.000792884
0.000808644
0.000820666
0.00081418
0.000776139
0.000714215
0.000655027
0.000586687
0.000472435
0.000309893
0.000735867
0.00104026
0.00122347
0.00133886
0.001423
0.0014865
0.00153357
0.00156591
0.00158449
0.00158973
0.00158331
0.00156548
0.00153692
0.00149859
0.00145169
0.00139745
0.00133681
0.00127037
0.00119719
0.0011165
0.00102937
0.000941091
0.000863502
0.000810535
0.000784454
0.000777812
0.000784457
0.00079636
0.000796836
0.000770292
0.000717638
0.000662963
0.00059386
0.000468453
0.000299431
0.000714032
0.00102425
0.00121719
0.00133883
0.001428
0.00149599
0.00154811
0.00158674
0.00161315
0.00162825
0.00163237
0.00162613
0.00160879
0.00158015
0.00154063
0.00149134
0.00143361
0.00136856
0.00129598
0.00121447
0.00112324
0.00102449
0.000927517
0.00084826
0.000796096
0.000774356
0.000770607
0.000776072
0.000778306
0.000761327
0.000718554
0.000669271
0.000600304
0.000469552
0.000269046
0.00067951
0.000997607
0.00120415
0.00133497
0.00142866
0.00150237
0.00155964
0.00160406
0.00163765
0.00166155
0.00167659
0.00168237
0.00167839
0.00166276
0.00163443
0.00159339
0.00154074
0.00147824
0.00140735
0.00132715
0.00123612
0.00113345
0.00102206
0.000916141
0.000834378
0.000784033
0.000766679
0.000764508
0.000765837
0.000753768
0.000718899
0.00067398
0.000605866
0.00047607
0.000234806
0.000643734
0.000968955
0.00118971
0.00133065
0.00142883
0.00150542
0.00156614
0.00161495
0.0016543
0.0016857
0.00171048
0.0017287
0.00173887
0.00173854
0.00172501
0.00169669
0.00165289
0.00159525
0.00152665
0.00144812
0.00135889
0.00125653
0.00113919
0.00101583
0.000906099
0.000821788
0.000774763
0.000762103
0.000759594
0.000749863
0.000720868
0.000679619
0.000613661
0.000492771
0.00021306
0.000631814
0.000962731
0.00118861
0.00133521
0.00143803
0.00151611
0.00157807
0.00162847
0.00167063
0.00170681
0.00173908
0.00176796
0.00179194
0.00180693
0.00180812
0.00179486
0.00176167
0.00171023
0.00164335
0.00156399
0.00147329
0.00137031
0.00125235
0.00112513
0.00100185
0.000888844
0.000807132
0.000767893
0.000760091
0.000749855
0.00072416
0.000685909
0.000623769
0.000520839
0.000212442
0.00063522
0.000979672
0.00121176
0.00135975
0.00146234
0.00153931
0.00159965
0.00164882
0.00169125
0.00173029
0.0017693
0.00180883
0.00184823
0.00188045
0.00189788
0.00189597
0.00187239
0.00182544
0.00175797
0.00167418
0.00157674
0.00146661
0.00134307
0.00121366
0.00108789
0.00096411
0.000859088
0.000794867
0.000767284
0.000753456
0.000730472
0.000695246
0.000638674
0.000557706
0.000233714
0.000687602
0.00104442
0.00126428
0.00139988
0.00149413
0.00156543
0.00162132
0.00166732
0.00170775
0.00175153
0.001803
0.00186165
0.00192406
0.00197972
0.00201772
0.00202908
0.00201564
0.00197039
0.00189776
0.00180447
0.00169391
0.00156738
0.00142773
0.00128817
0.00115732
0.00102811
0.000908316
0.0008225
0.000779236
0.000759039
0.000736703
0.000704906
0.000654952
0.00059166
0.000286853
0.000760118
0.00110883
0.00131202
0.00143558
0.00152105
0.00158443
0.00163207
0.00167023
0.00170858
0.00175379
0.00181382
0.00189397
0.00197948
0.00205708
0.00211557
0.00214784
0.00214881
0.00212239
0.00206012
0.00196772
0.0018456
0.00169428
0.00152437
0.00136113
0.00121248
0.00107368
0.000953196
0.000861853
0.000806138
0.000775345
0.00074861
0.000717152
0.000671696
0.000613216
0.000385381
0.000860848
0.00117878
0.00135539
0.00146013
0.00153406
0.00158955
0.00163224
0.00166637
0.00169961
0.00174633
0.00181381
0.00189905
0.00198931
0.00206895
0.00212785
0.00216132
0.00216798
0.00215001
0.00210392
0.00202618
0.00191841
0.00178648
0.00163756
0.00147685
0.00130274
0.00112434
0.000971595
0.000871711
0.000816001
0.00078507
0.00075995
0.000730998
0.000686552
0.000610045
0.000520322
0.000921173
0.00120189
0.00136305
0.00146415
0.00153628
0.00158756
0.00161653
0.00163158
0.00164733
0.00168444
0.001751
0.00183934
0.00193773
0.00202713
0.00209772
0.0021439
0.00216061
0.00214949
0.00210989
0.00204345
0.00195449
0.0018447
0.00171473
0.0015624
0.00138667
0.00119821
0.00102551
0.000904179
0.00083756
0.000802251
0.000774634
0.000741165
0.000684868
0.000568976
0.000545918
0.000924676
0.00120137
0.00136152
0.0014619
0.0015329
0.00158038
0.0016082
0.00161699
0.00161835
0.00161267
0.00161635
0.0016486
0.00172178
0.00180615
0.00189324
0.00197183
0.00202923
0.00205526
0.00205459
0.00202247
0.00196071
0.0018745
0.00176561
0.00162506
0.00145185
0.00126066
0.00108015
0.000946104
0.000867705
0.000823906
0.000789392
0.000748418
0.000676639
0.000503911
0.000524469
0.000883052
0.00115983
0.00132466
0.00143465
0.00151775
0.00157744
0.00161419
0.00162501
0.00162033
0.00160634
0.00159013
0.00157079
0.00154734
0.00155449
0.0016012
0.00168392
0.00176431
0.00183596
0.00188826
0.00190882
0.00189874
0.00185638
0.00178171
0.00166827
0.00151358
0.00132897
0.00114411
0.000998393
0.000906643
0.000851374
0.000807608
0.000755189
0.000661572
0.000457014
0.000442533
0.000814535
0.00110611
0.00128524
0.00140446
0.00149524
0.00156614
0.00161886
0.00165615
0.00166563
0.00165255
0.00162107
0.00157896
0.00153623
0.00149848
0.00147601
0.00145402
0.00147024
0.00152223
0.00160198
0.00166942
0.0017155
0.00172999
0.00170983
0.00164724
0.00153365
0.00137943
0.00120444
0.00105273
0.000947468
0.000878532
0.000823908
0.000759857
0.000650078
0.00044318
0.000367022
0.000759499
0.00105773
0.00124624
0.00137313
0.00147101
0.00155046
0.0016145
0.00166233
0.00169641
0.00171118
0.00170796
0.00168226
0.00163495
0.00157081
0.00149874
0.00143397
0.00138137
0.00134942
0.0013391
0.00137285
0.00143586
0.00149572
0.00153719
0.0015457
0.00150426
0.00139685
0.00125347
0.00110589
0.000990035
0.000907922
0.000842746
0.000769693
0.000651131
0.000446096
0.000325334
0.000721014
0.00102399
0.001222
0.00135605
0.00145969
0.00154491
0.00161272
0.00166449
0.00169994
0.00172078
0.00172711
0.00172153
0.00170167
0.00166525
0.00161062
0.00153826
0.00145398
0.00136863
0.0012975
0.00124513
0.001218
0.0012467
0.00131177
0.0013763
0.00140519
0.00137291
0.00126958
0.00114405
0.00102732
0.00093572
0.000862279
0.000781869
0.000656964
0.00046401
0.000311926
0.000707265
0.00100903
0.00121043
0.00134789
0.00145553
0.00154469
0.00162
0.00168041
0.00172508
0.00175283
0.0017633
0.00175837
0.00173892
0.00170659
0.00166226
0.00160587
0.00153677
0.00145552
0.00136683
0.00127916
0.00120602
0.00116214
0.00116185
0.00120466
0.00126888
0.00129633
0.00125913
0.00116289
0.00105488
0.000959753
0.000880807
0.000796157
0.000670107
0.000490343
0.000292771
0.000677975
0.000983162
0.0011943
0.00134208
0.00145406
0.00154735
0.00162561
0.0016902
0.00174122
0.00177777
0.00179899
0.00180443
0.00179415
0.00176815
0.00172703
0.00167191
0.00160412
0.00152494
0.00143645
0.00134199
0.00124699
0.00116555
0.00112017
0.00112114
0.00115614
0.00119804
0.00120672
0.00116019
0.00107331
0.00098117
0.000899429
0.000812849
0.000687974
0.000517063
0.000291512
0.000673294
0.000977199
0.00119264
0.0013424
0.00145879
0.00155584
0.00163835
0.00170736
0.00176262
0.00180322
0.00182814
0.00183779
0.00183282
0.00181326
0.00177922
0.0017309
0.00166851
0.00159238
0.00150356
0.00140477
0.00129884
0.00119604
0.00111926
0.00108627
0.00109358
0.00112399
0.00114488
0.00113281
0.00107237
0.000993404
0.000914991
0.000830463
0.000709747
0.000547501
0.000297609
0.000672984
0.000976586
0.0011939
0.00134838
0.00146934
0.00157047
0.00165739
0.00173111
0.00179177
0.00183847
0.00186992
0.00188574
0.00188593
0.00187121
0.00184027
0.00179399
0.00173305
0.00165811
0.00156969
0.0014686
0.00135565
0.00123797
0.00113741
0.00107775
0.00106244
0.00107656
0.00109906
0.00110005
0.00106534
0.000998949
0.000926967
0.000847267
0.000731884
0.000573117
0.00031485
0.0006899
0.000990057
0.00120309
0.00135664
0.00148102
0.0015865
0.00167642
0.00175256
0.00181661
0.00186767
0.001905
0.00192818
0.00193709
0.00193139
0.00190947
0.00187009
0.00181271
0.00173777
0.00164693
0.00154168
0.0014215
0.00129072
0.00116878
0.00108254
0.00104391
0.00104524
0.00106492
0.00107384
0.00105335
0.00100063
0.000936627
0.000862106
0.000750635
0.00058696
0.000330331
0.000698887
0.000994926
0.00120572
0.00135935
0.00148731
0.00159846
0.00169584
0.00177975
0.00184994
0.00190662
0.00194991
0.0019799
0.00199696
0.0020005
0.00198971
0.00196048
0.00191095
0.00183928
0.00174574
0.00163373
0.00150653
0.00136439
0.00122261
0.00111004
0.00104562
0.00102951
0.00104133
0.00105425
0.00104343
0.00100124
0.000945059
0.000875431
0.000766519
0.000595608
0.000351011
0.000716552
0.00100631
0.00120924
0.0013604
0.00148948
0.0016044
0.00170564
0.00179415
0.001869
0.00192942
0.00197552
0.00200767
0.00202722
0.00203506
0.00203096
0.00201284
0.00197814
0.00192319
0.00184455
0.00173963
0.00160639
0.00144943
0.00128514
0.00114596
0.00105787
0.00102274
0.00102541
0.00103834
0.00103395
0.00100119
0.000951754
0.000886715
0.000779067
0.000596239
0.000373554
0.000731287
0.00100991
0.00120975
0.00136006
0.00148976
0.00160578
0.00171071
0.00180417
0.00188315
0.00194544
0.00199237
0.00202394
0.00204147
0.00204649
0.00204009
0.00202159
0.00198974
0.00194195
0.00187534
0.00178689
0.00167098
0.00152201
0.00134533
0.0011777
0.00106884
0.00102035
0.00101704
0.0010288
0.00102767
0.001001
0.00095696
0.000894984
0.000785009
0.000584989
0.00038403
0.000732698
0.001009
0.00120215
0.00134826
0.0014799
0.0016006
0.0017096
0.00180637
0.0018912
0.00196386
0.00201832
0.00205526
0.0020759
0.00208165
0.00207377
0.00205278
0.00201844
0.00196938
0.00190382
0.00181945
0.00171203
0.00157563
0.00140698
0.00122438
0.00108746
0.00102142
0.00101026
0.00102059
0.00102183
0.000999602
0.000959723
0.000899498
0.000784941
0.000565289
0.000384398
0.000731757
0.000999932
0.00118613
0.00132828
0.00145935
0.00158346
0.001699
0.0018031
0.00189253
0.00196847
0.00202679
0.00206776
0.00209191
0.00210023
0.00209387
0.00207365
0.00203996
0.00199227
0.00192944
0.00184908
0.00174743
0.00161904
0.00145945
0.00127841
0.00111833
0.00103262
0.00100953
0.00101649
0.00101852
0.000999211
0.000962166
0.000902345
0.000782008
0.000548717
0.00037786
0.000723395
0.000988407
0.00117004
0.00130837
0.00143668
0.00156155
0.00168009
0.00179025
0.00188871
0.00197156
0.00204021
0.00208939
0.00211965
0.00213188
0.00212747
0.00210794
0.00207427
0.00202668
0.00196489
0.0018867
0.00178859
0.00166497
0.00150976
0.0013272
0.00115246
0.00104432
0.00101031
0.00101287
0.00101604
0.000999456
0.000964234
0.000905078
0.000782555
0.000544782
0.000369449
0.000716026
0.000977203
0.00115306
0.00128641
0.00141129
0.00153649
0.00165841
0.00177422
0.00188017
0.00197275
0.00204955
0.00210682
0.0021446
0.00216299
0.00216283
0.00214623
0.0021142
0.00206874
0.00201016
0.00193693
0.00184614
0.00173244
0.00158911
0.00141621
0.00123299
0.00108142
0.00101807
0.00101332
0.0010153
0.00100094
0.000967114
0.000908276
0.00078436
0.000548887
0.000369069
0.000715322
0.000972741
0.00114247
0.00127029
0.00139063
0.00151365
0.00163725
0.00175745
0.00187003
0.00197012
0.00205358
0.0021221
0.0021695
0.00219595
0.00220162
0.00218833
0.00215709
0.00211112
0.00205204
0.0019799
0.00189307
0.00178718
0.00165635
0.00149978
0.00132574
0.00115713
0.00104854
0.00101827
0.00101588
0.00100267
0.000970703
0.000913206
0.000791181
0.000567477
0.000370688
0.000715307
0.000967606
0.00113055
0.00125223
0.00136719
0.00148667
0.00160987
0.00173268
0.00185072
0.00195863
0.00205151
0.00212577
0.00218359
0.00221993
0.00223441
0.00222774
0.00220107
0.00215733
0.0020985
0.00202619
0.00194016
0.001837
0.0017132
0.00156902
0.00140424
0.00122885
0.00109215
0.00103629
0.00102329
0.00100762
0.00097579
0.000919302
0.000799146
0.000576896
0.000373969
0.000717639
0.000964664
0.00112082
0.00123591
0.00134446
0.00145878
0.00157978
0.0017035
0.00182512
0.00193846
0.00203832
0.00212139
0.00218482
0.00222928
0.0022515
0.00225123
0.00223019
0.00218947
0.00213184
0.00205999
0.00197481
0.0018744
0.00175685
0.00162113
0.00146363
0.00129047
0.00114111
0.00106026
0.00103334
0.00101306
0.00098069
0.000923295
0.000800143
0.000576309
0.000376658
0.000719123
0.000962087
0.00111215
0.00122095
0.00132288
0.00143136
0.00154938
0.00167343
0.00179826
0.00191662
0.00202253
0.00211254
0.00218422
0.0022354
0.0022642
0.0022697
0.00225301
0.00221413
0.00215607
0.00208233
0.001995
0.00189292
0.00177432
0.00164014
0.00148977
0.00132892
0.0011807
0.00108805
0.00104783
0.00102132
0.00098604
0.000926132
0.000798469
0.00056305
0.000381118
0.00072275
0.000960572
0.00110435
0.00120699
0.00130217
0.00140392
0.00151732
0.00164052
0.00176785
0.00189106
0.00200301
0.00209957
0.00217805
0.00223613
0.00227355
0.00228582
0.00227379
0.00223702
0.00217806
0.00210098
0.0020089
0.00190085
0.00177388
0.00163144
0.00148062
0.00132987
0.00119994
0.0011119
0.00106519
0.00103149
0.000991549
0.000925829
0.000787827
0.000539191
0.000385746
0.000724921
0.000958531
0.00109691
0.00119386
0.00128221
0.00137624
0.00148278
0.00160279
0.00173066
0.00185787
0.00197613
0.00208047
0.00216772
0.0022352
0.00228002
0.00230253
0.00229784
0.00226568
0.0022078
0.00212792
0.00202951
0.00191273
0.00177528
0.00162111
0.00146275
0.00131712
0.00120119
0.00112158
0.00107355
0.00103659
0.00099415
0.000925738
0.000780632
0.00052382
0.000386873
0.000724964
0.000955512
0.00108942
0.00118141
0.0012631
0.00134861
0.00144595
0.00155933
0.00168462
0.00181373
0.00193727
0.00204912
0.00214548
0.00222345
0.00228041
0.00231391
0.00232103
0.00229905
0.00224866
0.00217262
0.00207463
0.00195479
0.00180904
0.00163877
0.00146626
0.00131715
0.00120294
0.00112897
0.00108195
0.0010421
0.000996823
0.000926231
0.000780829
0.000523575
0.000386096
0.000722596
0.000951052
0.00108222
0.00117091
0.00124714
0.00132421
0.00141051
0.00151321
0.0016328
0.00176128
0.00188859
0.00200701
0.00211181
0.00219985
0.00226835
0.00231438
0.00233555
0.00232817
0.00229213
0.00222917
0.00214213
0.00203136
0.00189228
0.00171948
0.00152053
0.00133457
0.00120525
0.00113084
0.00108953
0.00105061
0.00100412
0.000932648
0.000787133
0.000540905
0.000383167
0.000716272
0.00094398
0.00107433
0.00116119
0.00123336
0.00130294
0.00137822
0.00146818
0.00157843
0.00170391
0.00183394
0.00195869
0.00207166
0.00216901
0.00224802
0.00230531
0.0023377
0.00234413
0.00232311
0.00227495
0.00220294
0.00210759
0.00198448
0.00182575
0.00162983
0.00142126
0.00125067
0.00114715
0.00109394
0.00105415
0.00100813
0.000938184
0.000798685
0.000563964
0.000380185
0.000710919
0.000937974
0.00106821
0.00115419
0.00122372
0.00128703
0.00135159
0.00142668
0.00152178
0.00163951
0.0017692
0.00189932
0.00202066
0.00212772
0.00221712
0.00228505
0.00232853
0.00234552
0.00233603
0.00230165
0.00224366
0.00216263
0.00205427
0.00191114
0.00172892
0.00151893
0.00132434
0.0011894
0.0011139
0.00106565
0.00101778
0.000948122
0.000810361
0.000571347
0.000375229
0.000702801
0.000930135
0.00106143
0.00114782
0.00121648
0.001276
0.00133244
0.00139401
0.00147171
0.00157356
0.00169666
0.00182852
0.00195712
0.00207402
0.00217374
0.00225223
0.00230649
0.00233419
0.00233502
0.00231014
0.0022618
0.0021905
0.00209281
0.001962
0.00179267
0.00159082
0.00138828
0.00122988
0.00113361
0.00107414
0.00102292
0.000952721
0.000813372
0.000567646
0.000366285
0.000692505
0.000920961
0.00105446
0.00114273
0.00121187
0.00126934
0.00131915
0.00136856
0.00142818
0.00151026
0.00161892
0.00174616
0.00187933
0.00200573
0.00211663
0.00220696
0.00227325
0.00231279
0.00232415
0.00230819
0.00226633
0.00219932
0.0021052
0.00197924
0.00181785
0.00162785
0.00143513
0.00127282
0.001162
0.00108992
0.00103124
0.00095597
0.000810398
0.000546297
0.000355265
0.00068116
0.000910738
0.00104699
0.00113838
0.00121009
0.00126855
0.00131614
0.00135517
0.00139434
0.00145311
0.00154021
0.00165566
0.00178888
0.00192446
0.0020478
0.00215187
0.00223253
0.00228661
0.00231169
0.00230741
0.00227368
0.00221052
0.00211691
0.00198976
0.00182707
0.00163857
0.00145254
0.00129633
0.00118291
0.00110357
0.00103977
0.000960615
0.000811455
0.000542169
0.000343314
0.000668208
0.000898452
0.00103783
0.00113312
0.0012088
0.00127019
0.00131797
0.00135408
0.00138349
0.00141141
0.00146588
0.00155624
0.00167985
0.00182076
0.00195902
0.00208131
0.00218176
0.00225673
0.00230335
0.00231944
0.00230342
0.00225342
0.00216814
0.00204623
0.00188609
0.00169338
0.00149509
0.0013246
0.00120124
0.00111572
0.00104863
0.000966995
0.000813925
0.000554727
0.000332147
0.000655064
0.000885391
0.001028
0.0011277
0.00120836
0.00127505
0.00132643
0.00136231
0.0013851
0.00140216
0.00142012
0.00146731
0.00156014
0.00169196
0.00183811
0.00197847
0.00210106
0.00220071
0.00227383
0.00231761
0.00232941
0.00230591
0.00224215
0.00213813
0.00199293
0.00180753
0.00159726
0.00140008
0.00124919
0.00114418
0.00106589
0.000982574
0.00083827
0.000609075
0.000324158
0.000642138
0.000871747
0.00101745
0.00112158
0.00120733
0.00127991
0.00133721
0.00137758
0.00140073
0.0014093
0.00141278
0.00142138
0.00145876
0.00155719
0.00169515
0.00184419
0.00198517
0.00210822
0.0022081
0.00228148
0.00232476
0.00233158
0.0023021
0.00222677
0.00210576
0.00193913
0.00173126
0.00150948
0.00131992
0.00118341
0.00108877
0.00100029
0.000864701
0.000650962
0.000319483
0.000629838
0.000858408
0.00100732
0.00111619
0.00120745
0.00128682
0.00135155
0.00139953
0.00142882
0.00143812
0.00143151
0.0014192
0.00142048
0.00145003
0.00155063
0.00169175
0.00184176
0.00198247
0.00210478
0.0022043
0.00227731
0.00231623
0.00231151
0.00226777
0.00218155
0.0020455
0.00185627
0.00162869
0.00140868
0.00124056
0.00112676
0.00102555
0.000884853
0.000655815
0.000312397
0.000614721
0.000842838
0.000995428
0.00110933
0.00120677
0.00129198
0.00136382
0.00141979
0.00145751
0.00147436
0.00147176
0.00145023
0.00142082
0.00140884
0.00143439
0.00153449
0.00167718
0.00182808
0.00196915
0.00209207
0.00219109
0.002258
0.0022852
0.00226233
0.00218691
0.00206825
0.00190053
0.00168743
0.00146897
0.00129291
0.00116587
0.00104881
0.000887992
0.000631689
0.000303503
0.000599022
0.000827318
0.000984025
0.00110297
0.00120646
0.00129914
0.00137928
0.0014437
0.00148938
0.00151458
0.00151802
0.00150072
0.00146622
0.00142525
0.00140343
0.00141962
0.0015169
0.00166093
0.00181476
0.00195741
0.00207694
0.00216459
0.00221229
0.00221375
0.00216627
0.00206044
0.00189955
0.00170433
0.00150205
0.00133183
0.00119833
0.00106515
0.000880945
0.000586839
0.000293807
0.000583066
0.000811356
0.000971627
0.00109522
0.00120466
0.00130513
0.00139504
0.00147055
0.00152683
0.00156065
0.00157113
0.00155911
0.00152663
0.00147945
0.0014299
0.00140217
0.00141774
0.00150538
0.00164971
0.00180333
0.00194014
0.00204841
0.00211903
0.00214367
0.00211669
0.00203279
0.00189503
0.00171709
0.00153185
0.00136921
0.00123093
0.00108312
0.000877312
0.000562085
0.000283557
0.000567907
0.000796395
0.000959315
0.00108662
0.00120126
0.00130923
0.00140926
0.00149683
0.00156633
0.00161275
0.0016321
0.00162611
0.0015968
0.0015487
0.00148892
0.00143115
0.00140139
0.00142213
0.00150966
0.00164254
0.00178417
0.00190703
0.0019977
0.00204537
0.00204268
0.00198377
0.00187136
0.00171844
0.00155549
0.00140212
0.0012621
0.00110527
0.000880275
0.000558185
0.000272785
0.00055297
0.000781238
0.000946101
0.00107641
0.00119544
0.00130974
0.00141979
0.00151932
0.00160306
0.00166541
0.0017011
0.00170605
0.00168163
0.00163544
0.00157165
0.00149814
0.00143065
0.00139901
0.00142711
0.00151305
0.00162827
0.00175107
0.00185814
0.00193117
0.00195641
0.00192605
0.00184076
0.001715
0.00156991
0.00142662
0.00128823
0.00112774
0.000893116
0.000564121
0.000265729
0.000542177
0.00076867
0.000933958
0.00106634
0.0011893
0.00131029
0.00142827
0.00153771
0.00163401
0.00171151
0.00176438
0.00178823
0.00178034
0.00174077
0.00167535
0.00159403
0.00150417
0.00142708
0.00139715
0.00143061
0.00151206
0.00161364
0.00171588
0.00180487
0.00185686
0.0018572
0.00180498
0.0017057
0.00158026
0.00144896
0.00131588
0.00115662
0.000919594
0.000591003
0.000261283
0.000532753
0.000756815
0.000921352
0.00105483
0.00118087
0.00130697
0.00143053
0.00155024
0.00165766
0.00174814
0.00181631
0.00185814
0.0018704
0.0018513
0.0017984
0.00171324
0.00160783
0.00150011
0.00142018
0.00140076
0.00143668
0.00151341
0.00160284
0.00168945
0.0017568
0.00178325
0.00175989
0.0016862
0.00158052
0.0014623
0.00133779
0.00118474
0.000949479
0.000619551
0.000260691
0.000526241
0.000746122
0.000907785
0.00104083