/*--------------------------------*- C++ -*----------------------------------*\
| =========                 |                                                 |
| \\      /  F ield         | OpenFOAM: The Open Source CFD Toolbox           |
|  \\    /   O peration     | Version:  2.0.x                                 |
|   \\  /    A nd           | Web:      www.OpenFOAM.org                      |
|    \\/     M anipulation  |                                                 |
\*---------------------------------------------------------------------------*/
FoamFile
{
    version     2.0;
    format      ascii;
    class       volScalarField;
    location    "750";
    object      omega;
}
// * * * * * * * * * * * * * * * * * * * * * * * * * * * * * * * * * * * * * //

dimensions      [0 0 -1 0 0 0 0];

internalField   nonuniform List<scalar> 
78750
(
1020.83
6.33295
6.76321
6.88273
6.94925
7.00767
7.1106
7.21897
7.31601
7.39476
7.46634
7.53042
7.58599
7.63307
7.67223
7.70388
7.72957
7.75032
7.76555
7.7761
7.77835
7.77947
7.77768
7.77621
7.77485
7.76091
7.73891
7.70995
7.67121
7.62681
7.57569
7.51343
7.42507
7.08474
1090.39
1020.66
5.68383
6.0878
6.20262
6.25439
6.49294
6.79794
7.08715
7.33877
7.56075
7.75097
7.91255
8.04678
8.15518
8.24038
8.30431
8.34857
8.37598
8.38812
8.38704
8.37027
8.33899
8.28719
8.2222
8.14868
8.07399
8.00124
7.9268
7.84223
7.7517
7.65919
7.55369
7.41054
7.02962
1091.48
1020.2
4.74355
5.20007
5.59115
6.04233
6.50283
6.98214
7.40178
7.7415
7.9972
8.18628
8.32902
8.43599
8.51256
8.56244
8.5887
8.59249
8.58417
8.55536
8.51237
8.45741
8.39357
8.32153
8.23965
8.14861
8.05433
7.95372
7.84235
7.725
7.62001
7.52862
7.43817
7.25748
6.91191
1091.94
1020.23
5.24783
6.08734
6.82226
7.44799
7.92129
8.20884
8.39409
8.53141
8.64213
8.72817
8.78865
8.82742
8.8481
8.8529
8.84628
8.82225
8.78517
8.73697
8.67783
8.60733
8.52508
8.4312
8.32561
8.20784
8.07931
7.94651
7.80351
7.65755
7.52492
7.40634
7.29153
7.11309
6.83646
1092.17
1020.24
5.50308
6.54276
7.27169
7.7486
8.0565
8.28229
8.46128
8.60349
8.71642
8.80753
8.88108
8.93731
8.97447
8.99189
8.99014
8.9685
8.92924
8.87281
8.79988
8.7114
8.60851
8.49221
8.36331
8.22319
8.075
7.92053
7.75307
7.58707
7.4373
7.30212
7.17314
6.99946
6.773
1092.24
1020.49
6.06199
7.19956
7.89968
8.31378
8.56963
8.74554
8.87951
8.99459
9.0962
9.17969
9.24205
9.28297
9.30243
9.30062
9.27696
9.2316
9.16668
9.08343
8.98402
8.8703
8.74324
8.6031
8.45017
8.2863
8.11282
7.92825
7.73399
7.54996
7.38474
7.23259
7.09254
6.92953
6.73672
1092.27
1020.65
6.37408
7.50362
8.10778
8.43619
8.64072
8.7913
8.91636
9.03081
9.13751
9.23509
9.31673
9.37829
9.41473
9.42425
9.41111
9.37101
9.30787
9.22438
9.12392
9.00847
8.87865
8.73431
8.57502
8.39981
8.20466
7.98657
7.76477
7.55973
7.36825
7.18476
7.02451
6.86809
6.69732
1092.26
1020.98
6.77877
7.91049
8.46474
8.74581
8.9114
9.02512
9.11514
9.19825
9.29209
9.39743
9.49862
9.57542
9.62425
9.64384
9.63646
9.6012
9.54059
9.45759
9.35655
9.24024
9.10947
8.964
8.80258
8.62259
8.41835
8.18584
7.93836
7.69411
7.4471
7.21042
7.00818
6.83927
6.67372
1092.24
1021.22
7.06414
8.12381
8.60326
8.8432
8.98266
9.06986
9.13547
9.20569
9.29423
9.40425
9.51817
9.62205
9.69697
9.74054
9.74965
9.73118
9.68499
9.61361
9.52136
9.41198
9.28699
9.14642
8.98912
8.81242
8.61089
8.38341
8.13665
7.86494
7.56051
7.26335
7.01593
6.82772
6.65768
1092.22
1021.52
7.33554
8.37888
8.83458
9.05865
9.18249
9.2396
9.24873
9.2547
9.30079
9.40039
9.51911
9.62932
9.72141
9.79037
9.83799
9.85626
9.84137
9.79258
9.71819
9.62219
9.50746
9.37493
9.22407
9.05316
8.85893
8.64366
8.40388
8.11675
7.76553
7.39015
7.06821
6.84084
6.6601
1092.23
1021.71
7.48723
8.49311
8.93395
9.15721
9.28178
9.33326
9.32483
9.2861
9.279
9.32528
9.43499
9.56465
9.68434
9.77886
9.84285
9.87906
9.88913
9.8753
9.82943
9.75394
9.65711
9.54051
9.40464
9.24863
9.07
8.86815
8.63404
8.34045
7.96312
7.52146
7.13733
6.87323
6.67008
1092.24
1021.88
7.62134
8.64467
9.09825
9.33216
9.4651
9.51697
9.49751
9.41932
9.3227
9.27986
9.30553
9.40526
9.53447
9.66228
9.76797
9.84405
9.88793
9.90101
9.88654
9.84753
9.78048
9.68666
9.57021
9.43153
9.2716
9.08569
8.85572
8.55767
8.16786
7.69002
7.23653
6.92909
6.70158
1092.27
1021.95
7.65237
8.6899
9.16601
9.41888
9.56997
9.64294
9.64843
9.58869
9.47699
9.34781
9.26935
9.27536
9.35118
9.4777
9.60472
9.71447
9.79802
9.85175
9.874
9.86438
9.82532
9.76119
9.67166
9.55664
9.41666
9.24598
9.0261
8.73285
8.34137
7.84735
7.34478
7.00084
6.74785
1092.32
1021.99
7.68897
8.76971
9.27454
9.54474
9.70952
9.7996
9.81881
9.77728
9.68009
9.53986
9.3826
9.26264
9.23436
9.27134
9.37796
9.49856
9.613
9.70616
9.77125
9.80476
9.80532
9.77477
9.71499
9.62847
9.51251
9.35779
9.14957
8.86697
8.48175
7.98457
7.45715
7.08433
6.80655
1092.38
1021.99
7.69635
8.7824
9.31239
9.60502
9.79009
9.90298
9.94868
9.93984
9.87646
9.76495
9.61344
9.43724
9.27253
9.17629
9.16834
9.2319
9.34729
9.46368
9.56584
9.64247
9.68841
9.70173
9.6829
9.62995
9.5425
9.41233
9.22517
8.95976
8.58865
8.10044
7.56911
7.17776
6.87751
1092.46
1021.97
7.69793
8.82038
9.37756
9.68815
9.88748
10.0157
10.0841
10.0952
10.0568
9.97263
9.84857
9.69057
9.50706
9.31822
9.1613
9.07659
9.07823
9.1504
9.26422
9.37461
9.4659
9.52866
9.55752
9.54967
9.49979
9.40111
9.24012
9.00295
8.65829
8.1898
7.66851
7.27211
6.95582
1092.54
1021.88
7.67694
8.82406
9.40428
9.73374
9.95068
10.0976
10.1871
10.2208
10.2075
10.1477
10.0473
9.91283
9.75033
9.56527
9.36808
9.17691
9.02682
8.94871
8.95852
9.04377
9.15343
9.25682
9.33458
9.37643
9.37617
9.32594
9.21034
9.00393
8.6929
8.25664
7.75845
7.36908
7.04284
1092.64
1021.84
7.67507
8.8592
9.46857
9.81364
10.0402
10.1964
10.2967
10.3447
10.345
10.2991
10.2111
10.0877
9.93653
9.76496
9.57882
9.38488
9.18694
9.0007
8.86003
8.79135
8.82763
8.92834
9.03181
9.11689
9.17001
9.17457
9.11938
8.96777
8.69062
8.29772
7.83038
7.45789
7.13132
1092.77
1021.86
7.70824
8.91439
9.53677
9.89051
10.125
10.2892
10.3974
10.4548
10.4626
10.4252
10.3431
10.2245
10.0772
9.90861
9.72541
9.53395
9.34003
9.14338
8.95063
8.78303
8.67585
8.66497
8.72812
8.82638
8.91853
8.97633
8.97456
8.88664
8.67609
8.32359
7.89592
7.54458
7.22352
1092.92
1021.98
7.79827
9.02388
9.65289
10.0079
10.2424
10.4066
10.5147
10.5715
10.5779
10.5398
10.4551
10.3348
10.1874
10.0201
9.83817
9.64568
9.44797
9.24577
9.04125
8.84212
8.66964
8.56334
8.53975
8.57956
8.67119
8.7579
8.80234
8.77297
8.61787
8.3251
7.94447
7.62242
7.31376
1093.06
1022.22
7.92634
9.13294
9.75218
10.1042
10.3393
10.5055
10.6157
10.6739
10.6808
10.6416
10.5572
10.4382
10.2932
10.1292
9.95042
9.75922
9.558
9.34687
9.12655
8.90267
8.69185
8.53181
8.44889
8.43802
8.48226
8.56915
8.63872
8.64463
8.5531
8.31631
7.98183
7.68922
7.39447
1093.15
1022.49
8.03955
9.21825
9.83295
10.1866
10.4254
10.596
10.7107
10.7739
10.787
10.7541
10.6808
10.5741
10.4402
10.2844
10.1104
9.92063
9.71641
9.49711
9.26085
9.01095
8.76228
8.55142
8.41508
8.35597
8.36442
8.42746
8.50378
8.53652
8.48448
8.29778
8.01038
7.74581
7.45927
1093.18
1022.67
8.06286
9.22759
9.85524
10.2244
10.4745
10.6565
10.7838
10.8616
10.8914
10.8795
10.8292
10.7446
10.6299
10.489
10.3254
10.1416
9.93901
9.71716
9.47203
9.20365
8.92209
8.65419
8.44645
8.33154
8.29522
8.32009
8.38815
8.43932
8.41798
8.27247
8.02819
7.78912
7.50735
1093.17
1022.69
8.05431
9.22092
9.85451
10.2342
10.5046
10.7023
10.8459
10.9429
10.9971
11.011
10.9894
10.9334
10.8446
10.7256
10.5793
10.4083
10.2143
9.99784
9.75421
9.4789
9.17349
8.85532
8.569
8.37165
8.27596
8.25714
8.28991
8.34398
8.35035
8.2497
8.04358
7.82407
7.54017
1093.14
1022.62
7.97332
9.16967
9.83847
10.2389
10.5209
10.7316
10.8903
11.0061
11.0837
11.1265
11.1366
11.1154
11.061
10.9727
10.8512
10.6991
10.5192
10.3132
10.0788
9.80898
9.49861
9.1524
8.80225
8.50992
8.31641
8.23824
8.23189
8.26126
8.27758
8.2159
8.04778
7.85149
7.56916
1093.15
1022.39
7.83062
9.07426
9.79527
10.2258
10.5234
10.7521
10.926
11.0586
11.1573
11.2262
11.268
11.2823
11.2675
11.2184
11.1318
11.0072
10.8469
10.6548
10.4331
10.1766
9.87736
9.52957
9.14018
8.75866
8.45741
8.27201
8.2117
8.21265
8.22592
8.18408
8.0494
7.87174
7.59324
1093.19
1022.11
7.67968
8.96732
9.744
10.2099
10.5224
10.76
10.9447
11.0908
11.2068
11.2978
11.3684
11.4188
11.445
11.4407
11.3983
11.3127
11.1821
11.0098
10.8023
10.56
10.2777
9.94403
9.54827
9.11658
8.72003
8.41036
8.24001
8.19893
8.19897
8.16892
8.05785
7.89533
7.62627
1093.31
1021.91
7.60733
8.93772
9.73653
10.2197
10.5467
10.7892
10.9779
11.129
11.2537
11.3587
11.451
11.5322
11.5977
11.6367
11.6378
11.5955
11.499
11.3499
11.1545
10.9186
10.6424
10.3193
9.93574
9.5046
9.06961
8.65835
8.35782
8.21859
8.19762
8.16627
8.07097
7.9213
7.66856
1093.52
1021.89
7.61528
8.98178
9.80135
10.2914
10.6178
10.8563
11.0397
11.1871
11.314
11.4254
11.5359
11.6474
11.7552
11.841
11.8847
11.8769
11.8094
11.6774
11.487
11.2468
10.9607
10.6277
10.2404
9.81694
9.38657
8.94505
8.55883
8.32149
8.2247
8.17981
8.09573
7.95933
7.73154
1093.81
1022.05
7.82241
9.21002
9.97396
10.4182
10.7168
10.9377
11.108
11.2459
11.3629
11.4909
11.6332
11.7947
11.9627
12.1096
12.2073
12.2329
12.1936
12.0689
11.8718
11.6165
11.3028
10.9321
10.5074
10.0644
9.62911
9.17871
8.74422
8.42719
8.27095
8.20218
8.12104
7.99858
7.79955
1094.07
1022.46
8.11517
9.43886
10.1332
10.5308
10.7995
10.9971
11.1427
11.2566
11.3701
11.5015
11.6762
11.8954
12.1274
12.3353
12.4903
12.5742
12.5751
12.4987
12.3295
12.0762
11.7357
11.3023
10.7978
10.2976
9.82058
9.35057
8.92004
8.581
8.37476
8.26552
8.16896
8.04961
7.87218
1094.26
1023.24
8.5107
9.69168
10.2841
10.6252
10.8552
11.0205
11.1492
11.2534
11.3543
11.4904
11.6797
11.9161
12.1618
12.3751
12.5311
12.6197
12.6389
12.5947
12.4707
12.2602
11.9628
11.5882
11.1517
10.6645
10.1134
9.51912
8.98485
8.62359
8.41733
8.30439
8.21406
8.10662
7.93791
1094.24
1024.37
8.77917
9.77369
10.3115
10.6331
10.8586
11.0173
11.1089
11.1594
11.2159
11.3348
11.5269
11.7838
12.0587
12.2986
12.482
12.5968
12.6345
12.6004
12.4914
12.31
12.0652
11.757
11.3832
10.9325
10.3912
9.77858
9.18391
8.74624
8.50075
8.37223
8.27217
8.14803
7.93829
1093.96
1024.65
8.79657
9.78481
10.3149
10.6346
10.8523
10.9962
11.0803
11.1093
11.1084
11.0955
11.1323
11.2514
11.4815
11.7259
11.9684
12.1766
12.321
12.3805
12.3669
12.27
12.0934
11.8488
11.5365
11.1244
10.5982
9.98836
9.37903
8.90322
8.61727
8.45836
8.33296
8.18068
7.90253
1093.46
1024.52
8.65887
9.65806
10.2049
10.5528
10.8081
10.9871
11.0944
11.1247
11.1132
11.0789
11.0339
10.9771
10.9137
10.9658
11.1289
11.3812
11.614
11.8103
11.9442
11.9887
11.9474
11.818
11.5979
11.2628
10.7942
10.213
9.60098
9.09462
8.76607
8.56666
8.40655
8.2091
7.8407
1093.08
1023.86
8.38504
9.46403
10.0698
10.4544
10.738
10.9528
11.1078
11.215
11.2398
11.1943
11.1004
10.9808
10.8595
10.7624
10.708
10.6484
10.7229
10.9042
11.1446
11.3363
11.4572
11.4858
11.4136
11.2174
10.8672
10.3808
9.80947
9.29208
8.92029
8.67162
8.47024
8.22723
7.78927
1092.96
1023.23
8.16431
9.29457
9.94059
10.3524
10.6594
10.9026
11.0945
11.2333
11.3326
11.3763
11.3618
11.28
11.1354
10.9422
10.7293
10.5387
10.3872
10.3133
10.2985
10.4229
10.6296
10.8105
10.9251
10.9352
10.7923
10.4468
9.97607
9.4787
9.07639
8.7839
8.54495
8.26726
7.79407
1092.97
1022.85
7.99059
9.16088
9.85055
10.2914
10.6196
10.8823
11.0868
11.2398
11.3441
11.4057
11.4255
11.4101
11.3511
11.2407
11.0734
10.8514
10.5923
10.3301
10.1136
9.95831
9.88826
10.0065
10.2216
10.4196
10.4967
10.3798
10.0387
9.6148
9.21178
8.887
8.61855
8.31319
7.81173
1093.09
1022.74
7.93663
9.1101
9.81394
10.2665
10.6068
10.8813
11.1073
11.285
11.4139
11.4927
11.5217
11.5073
11.4523
11.3605
11.2326
11.0661
10.857
10.6054
10.3255
10.045
9.81217
9.67569
9.68737
9.85072
10.0617
10.1413
10.0097
9.6856
9.31372
8.97776
8.68998
8.3696
7.86663
1093.31
1022.58
7.81042
9.01159
9.7558
10.244
10.6006
10.8882
11.1242
11.3154
11.4642
11.5694
11.6297
11.6444
11.6141
11.5385
11.4192
11.2583
11.0582
10.8204
10.5488
10.2515
9.94528
9.67865
9.53196
9.54281
9.67164
9.81601
9.84008
9.67657
9.38059
9.05632
8.76003
8.43458
7.94113
1093.52
1022.56
7.78588
8.98744
9.74935
10.2444
10.6139
10.9121
11.1591
11.3616
11.5213
11.6374
11.7085
11.7365
11.7234
11.669
11.5728
11.4343
11.2527
11.0269
10.758
10.4517
10.1145
9.77852
9.52322
9.41582
9.44742
9.55682
9.62911
9.58955
9.37977
9.10105
8.81838
8.50323
8.0319
1093.76
1022.61
7.78158
8.98252
9.75135
10.263
10.6459
10.9562
11.216
11.4319
11.6065
11.7389
11.8269
11.8706
11.8708
11.8291
11.7424
11.6119
11.4381
11.2208
10.9588
10.6516
10.298
9.91739
9.58268
9.38161
9.33365
9.38785
9.46959
9.47534
9.35384
9.12225
8.86343
8.56812
8.12255
1093.96
1022.75
7.85086
9.03086
9.78302
10.2909
10.6836
11.0052
11.2722
11.494
11.6771
11.8211
11.9253
11.9895
12.0138
11.9978
11.9365
11.8261
11.6641
11.4502
11.1863
10.8731
10.5039
10.0878
9.68629
9.39537
9.26549
9.27543
9.3495
9.38392
9.31449
9.12985
8.9004
8.62598
8.19968
1094.08
1022.88
7.89163
9.05129
9.7924
10.3008
10.7043
11.0433
11.3312
11.5729
11.7713
11.9294
12.0489
12.131
12.1774
12.1866
12.1565
12.0754
11.9376
11.7362
11.47
11.1468
10.7656
10.323
9.86445
9.48801
9.27013
9.21783
9.26435
9.31402
9.27959
9.13258
8.93208
8.67724
8.26411
1094.15
1023.05
7.96112
9.09043
9.80854
10.3055
10.7139
11.0627
11.3632
11.6183
11.8302
11.9995
12.1276
12.2169
12.2716
12.2942
12.2841
12.2352
12.1399
11.9869
11.7645
11.4614
11.0666
10.5864
10.0673
9.60747
9.3067
9.18989
9.20549
9.25651
9.24546
9.13259
8.95723
8.72074
8.31517
1094.16
1023.24
8.02751
9.1076
9.80901
10.3049
10.7144
11.0672
11.3753
11.6461
11.8668
12.0406
12.1699
12.2564
12.3051
12.3205
12.3055
12.2579
12.1736
12.0444
11.8605
11.6103
11.2727
10.8229
10.2661
9.71728
9.34629
9.18021
9.17471
9.22226
9.22328
9.13239
8.9768
8.75243
8.33943
1094.07
1023.33
8.03493
9.10575
9.78624
10.2706
10.6874
11.055
11.3778
11.6557
11.8979
12.0956
12.2437
12.3438
12.4
12.4166
12.3971
12.3427
12.2521
12.1206
11.9417
11.7065
11.399
10.9949
10.4729
9.87803
9.41371
9.18465
9.14988
9.19231
9.20205
9.12691
8.98729
8.76982
8.33856
1093.93
1023.34
8.03282
9.07459
9.73252
10.2062
10.624
11.0049
11.3476
11.6474
11.8983
12.1071
12.2665
12.3774
12.4429
12.4663
12.451
12.3989
12.3107
12.1839
12.014
11.7925
11.5053
11.1309
10.6458
10.0664
9.52651
9.22645
9.14737
9.17747
9.19043
9.12712
8.99708
8.78208
8.33269
1093.81
1023.29
7.99998
9.03287
9.67793
10.1419
10.5539
10.9395
11.2931
11.6116
11.889
12.1191
12.3026
12.4335
12.5139
12.547
12.5366
12.4867
12.3991
12.2737
12.1085
11.8957
11.6226
11.2682
10.8055
10.2326
9.64972
9.26955
9.15123
9.16454
9.18162
9.1278
9.0051
8.79283
8.33416
1093.78
1023.22
7.96851
8.99055
9.61883
10.0693
10.4733
10.8628
11.2288
11.5653
11.8643
12.1182
12.3274
12.4804
12.5802
12.6287
12.6289
12.5863
12.5034
12.3844
12.2293
12.0325
11.7838
11.4644
11.0481
10.5227
9.93296
9.41274
9.18112
9.16452
9.17856
9.13321
9.01594
8.8052
8.34145
1093.81
1023.22
7.96472
8.97357
9.58174
10.0157
10.4075
10.7931
11.1668
11.518
11.837
12.1134
12.3388
12.5209
12.645
12.7136
12.7282
12.6939
12.6127
12.4926
12.3367
12.144
11.9081
11.6143
11.2405
10.7756
10.2325
9.67425
9.29397
9.18775
9.18168
9.14001
9.0298
8.82456
8.36887
1093.95
1023.24
7.96471
8.95523
9.54137
9.95683
10.3338
10.7114
11.0869
11.4484
11.7848
12.0838
12.3352
12.5325
12.6842
12.7783
12.8153
12.7976
12.7278
12.6132
12.458
12.2651
12.0322
11.7477
11.3969
10.9743
10.4714
9.90839
9.44604
9.25213
9.20954
9.15836
9.04831
8.84648
8.39732
1094.01
1023.27
7.97414
8.94379
9.50688
9.90185
10.2604
10.6248
10.997
11.3643
11.7136
12.0296
12.3012
12.5224
12.6885
12.8037
12.8606
12.8594
12.804
12.6974
12.5454
12.3536
12.1228
11.8456
11.513
11.1182
10.6444
10.1007
9.60924
9.33525
9.24548
9.1783
9.06658
8.86106
8.39853
1094
1023.29
7.97957
8.93421
9.47687
9.85198
10.1908
10.5394
10.9056
11.2769
11.6379
11.9697
12.2589
12.4994
12.6877
12.8204
12.8943
12.9081
12.8646
12.7632
12.6103
12.4136
12.1767
11.8942
11.5577
11.1656
10.7133
10.2134
9.737
9.43087
9.29781
9.20881
9.0861
8.87104
8.39126
1093.89
1023.32
7.99419
8.92837
9.4495
9.80491
10.1234
10.4532
10.8086
11.1813
11.5529
11.9007
12.2079
12.4667
12.6732
12.8239
12.9194
12.9512
12.9205
12.8256
12.6716
12.4671
12.2181
11.919
11.5576
11.1388
10.6817
10.2116
9.79612
9.50957
9.35649
9.24399
9.10586
8.87027
8.34893
1093.72
1023.36
8.00312
8.92148
9.42393
9.76093
10.0585
10.366
10.7037
11.071
11.4483
11.8107
12.1374
12.4181
12.6481
12.8237
12.9411
12.9977
12.9856
12.9035
12.7542
12.5448
12.2813
11.9607
11.5715
11.1188
10.6359
10.1792
9.7999
9.53969
9.3832
9.26049
9.11385
8.87045
8.32543
1093.62
1023.37
8.0042
8.91065
9.39774
9.71856
9.99527
10.2775
10.5899
10.9418
11.3168
11.6894
12.0342
12.3377
12.5931
12.7959
12.9415
13.0286
13.0477
12.993
12.8652
12.6692
12.4114
12.0878
11.681
11.1827
10.6452
10.172
9.80685
9.56589
9.41441
9.28191
9.12551
8.87347
8.32688
1093.62
1023.37
7.99664
8.89548
9.37307
9.68301
9.94227
10.1985
10.4785
10.802
11.1658
11.5421
11.902
12.2266
12.5066
12.7371
12.9137
13.0313
13.0857
13.068
12.9779
12.8183
12.5941
12.3027
11.9266
11.4409
10.8531
10.2568
9.82256
9.57217
9.4383
9.30987
9.15052
8.89714
8.35497
1093.78
1023.35
7.97102
8.86971
9.34547
9.64981
9.89616
10.1289
10.3756
10.6632
11.0043
11.3782
11.7514
12.0975
12.4022
12.6588
12.8633
13.0097
13.0919
13.1086
13.0562
12.9348
12.7513
12.5043
12.178
11.7431
11.1806
10.5423
9.98481
9.63476
9.45533
9.32288
9.1654
8.91827
8.40078
1093.94
1023.33
7.94899
8.84733
9.32368
9.62549
9.8633
10.0757
10.2889
10.5322
10.8321
11.1903
11.5697
11.9365
12.2679
12.5527
12.7857
12.9599
13.0701
13.1129
13.0888
13.0016
12.8542
12.6457
12.3616
11.9761
11.4656
10.845
10.2321
9.78309
9.5274
9.36447
9.20051
8.9549
8.4448
1093.99
1023.29
7.916
8.81877
9.30001
9.60369
9.83874
10.0388
10.2259
10.4271
10.6756
10.9923
11.361
11.7405
12.0977
12.4129
12.6754
12.8783
13.0164
13.086
13.0873
13.0234
12.8992
12.7147
12.4583
12.1075
11.6382
11.053
10.4316
9.91776
9.59457
9.3932
9.21745
8.96962
8.45224
1093.95
1023.22
7.87294
8.78429
9.27502
9.58568
9.82253
10.0158
10.1814
10.3454
10.5384
10.7984
11.1313
11.5065
11.8842
12.231
12.5273
12.7637
12.9345
13.0352
13.0635
13.022
12.9139
12.7393
12.4909
12.1516
11.7041
11.1569
10.5764
10.0627
9.69687
9.45255
9.24986
8.98303
8.4397
1093.79
1023.13
7.82597
8.7464
9.24883
9.57087
9.81629
10.0126
10.1701
10.2978
10.4283
10.6196
10.894
11.2438
11.6313
12.0108
12.3457
12.6218
12.8322
12.972
13.0369
13.0267
12.9408
12.7774
12.5311
12.1887
11.7364
11.1896
10.6248
10.1309
9.76086
9.49563
9.27779
8.99868
8.44836
1093.77
1023.03
7.77221
8.70045
9.21648
9.55303
9.81198
10.0175
10.175
10.2937
10.3909
10.4838
10.663
10.9482
11.32
11.7255
12.1085
12.4376
12.7024
12.8976
13.0188
13.0622
13.0243
12.899
12.6801
12.3592
11.9236
11.3747
10.7775
10.2365
9.82981
9.54177
9.31157
9.02475
8.45939
1093.9
1022.95
7.71718
8.6512
9.18157
9.53469
9.81098
10.0339
10.2023
10.3185
10.3929
10.4508
10.5126
10.6709
10.9639
11.359
11.7774
12.1641
12.4922
12.7537
12.9434
13.0573
13.0904
13.0351
12.8763
12.6099
12.2263
11.716
11.1033
10.4907
9.99695
9.6418
9.37231
9.08106
8.55754
1094.33
1022.89
7.66197
8.59896
9.14356
9.51357
9.8076
10.0496
10.2364
10.3658
10.4395
10.4675
10.4821
10.5137
10.6436
10.9549
11.3687
11.7947
12.1823
12.5108
12.772
12.9619
13.0745
13.0953
13.0256
12.8389
12.5295
12.0866
11.5059
10.8446
10.2393
9.78179
9.45692
9.14736
8.65719
1094.63
1022.85
7.60888
8.5476
9.10681
9.49473
9.80799
10.0723
10.2827
10.4357
10.5277
10.5567
10.5367
10.5014
10.5094
10.6148
10.9356
11.3594
11.788
12.1746
12.5012
12.7618
12.9506
13.0515
13.0411
12.932
12.7111
12.3605
11.8484
11.1955
10.5222
9.9776
9.59311
9.23953
8.72952
1094.65
1022.79
7.5419
8.48654
9.06286
9.47011
9.80497
10.0885
10.3214
10.4992
10.6174
10.6697
10.6616
10.5955
10.5072
10.4766
10.5672
10.8863
11.3148
11.7464
12.1351
12.4647
12.7245
12.8979
12.9693
12.9129
12.7194
12.4057
11.9488
11.3513
10.7012
10.1466
9.72605
9.32136
8.73524
1094.43
1022.72
7.47113
8.42462
9.02022
9.44695
9.80282
10.1106
10.3691
10.5723
10.7143
10.7917
10.8023
10.7494
10.6435
10.5185
10.4573
10.5169
10.8277
11.2616
11.7039
12.0989
12.4202
12.6511
12.7754
12.7804
12.6588
12.3831
11.9532
11.3996
10.8025
10.274
9.83742
9.37932
8.70749
1094.09
1022.63
7.39801
8.36051
8.97414
9.41972
9.79698
10.1306
10.4196
10.6559
10.8286
10.9316
10.9635
10.9278
10.8299
10.6863
10.535
10.4538
10.5096
10.7875
11.2224
11.6651
12.0452
12.3381
12.5263
12.5925
12.5241
12.3042
11.9318
11.4345
10.8943
10.3948
9.94793
9.44499
8.69779
1093.92
1022.55
7.32898
8.30035
8.9282
9.38923
9.78548
10.144
10.4651
10.738
10.9492
11.0878
11.145
11.1284
11.042
10.8984
10.7175
10.541
10.4524
10.5232
10.798
11.197
11.6057
11.949
12.197
12.3268
12.3224
12.1678
11.8646
11.4382
10.9646
10.4974
10.05
9.52311
8.71254
1093.9
1022.46
7.26003
8.23919
8.87899
9.35335
9.76625
10.1474
10.4991
10.8076
11.0604
11.2446
11.3482
11.3622
11.2915
11.1572
10.9686
10.7471
10.5409
10.4457
10.538
10.8054
11.1515
11.5083
11.8108
12.0142
12.0865
12.0084
11.7779
11.427
11.0065
10.5735
10.1359
9.60253
8.76577
1093.96
1022.4
7.21065
8.18865
8.83393
9.31804
9.7455
10.1477
10.5262
10.8648
11.1539
11.3812
11.5333
11.6009
11.5778
11.4643
11.2761
11.0373
10.7676
10.5319
10.4413
10.5484
10.8005
11.1062
11.406
11.661
11.8096
11.8151
11.6752
11.3983
11.0366
10.6413
10.225
9.70255
8.86769
1094.18
1022.37
7.16755
8.1411
8.78726
9.27792
9.71795
10.1387
10.5343
10.904
11.225
11.4883
11.6829
11.8007
11.8349
11.7811
11.6311
11.387
11.0796
10.7567
10.5121
10.4542
10.5684
10.8058
11.0758
11.3317
11.5281
11.6072
11.5459
11.3395
11.0323
10.6802
10.2936
9.79723
8.97971
1094.4
1022.36
7.13726
8.09777
8.73666
9.22871
9.67985
10.1151
10.5306
10.9171
11.2729
11.5695
11.8021
11.962
12.0441
12.0441
11.9591
11.7719
11.4752
11.0928
10.7279
10.5003
10.4752
10.6014
10.8269
11.0707
11.2813
11.4098
11.4077
11.2722
11.0219
10.7058
10.3507
9.88611
9.09717
1094.65
1022.39
7.11755
8.05811
8.68242
9.16848
9.62234
10.0657
10.4977
10.9097
11.2864
11.621
11.8935
12.0926
12.2167
12.262
12.2262
12.0975
11.8648
11.5191
11.0955
10.7092
10.5001
10.506
10.6466
10.8585
11.0685
11.2197
11.2622
11.1837
10.9854
10.7106
10.3915
9.96208
9.20984
1094.85
1022.43
7.102
8.01648
8.62307
9.09941
9.54834
9.99235
10.4331
10.8634
11.269
11.6283
11.9348
12.1807
12.3461
12.4332
12.4364
12.3529
12.1688
11.878
11.4841
11.0449
10.6765
10.5174
10.5674
10.7418
10.9391
11.0918
11.1536
11.1051
10.944
10.7076
10.4171
10.0135
9.27878
1094.89
1022.43
7.07744
7.96817
8.55503
9.01751
9.45606
9.89422
10.3356
10.7757
11.203
11.5976
11.9366
12.212
12.4255
12.5578
12.6026
12.5567
12.4142
12.1704
11.8222
11.3935
10.9577
10.6554
10.5885
10.6979
10.8645
11.0069
11.0746
11.0419
10.9053
10.6951
10.4303
10.0486
9.32317
1094.86
1022.43
7.05083
7.91821
8.48355
8.9277
9.35111
9.7781
10.2137
10.6559
11.096
11.5171
11.8933
12.211
12.4614
12.637
12.7183
12.7072
12.6006
12.3957
12.0883
11.6875
11.2412
10.866
10.6928
10.7185
10.8446
10.9647
11.0227
10.9924
10.8699
10.6777
10.4308
10.0608
9.32717
1094.75
1022.39
7.01607
7.86769
8.41431
8.83954
9.2452
9.65622
10.079
10.5146
10.9585
11.3979
11.8082
12.1678
12.464
12.6845
12.8246
12.8625
12.8011
12.638
12.3701
11.9958
11.5362
11.0881
10.8085
10.7598
10.8409
10.945
10.9994
10.9699
10.8524
10.6685
10.4319
10.0716
9.33839
1094.7
1022.33
6.97776
7.81824
8.34847
8.75534
9.1394
9.52918
9.93086
10.3477
10.7807
11.2236
11.6574
12.0548
12.4018
12.6775
12.8667
12.9677
12.9668
12.8674
12.6654
12.3543
11.9302
11.4408
11.0226
10.832
10.8453
10.9197
10.9635
10.9385
10.8328
10.662
10.4323
10.0755
9.34129
1094.71
1022.28
6.95
7.77905
8.29502
8.68741
9.05406
9.42402
9.80294
10.1956
10.6073
11.0389
11.4797
11.9013
12.2869
12.6138
12.8635
13.0247
13.096
13.071
12.9479
12.7169
12.3638
11.9
11.4138
11.0554
10.9128
10.9281
10.9619
10.9367
10.8345
10.6673
10.4441
10.0946
9.36813
1094.85
1022.24
6.9257
7.744
8.24722
8.62729
8.9797
9.33168
9.68777
10.0533
10.4363
10.844
11.2738
11.7059
12.1189
12.4886
12.7931
13.0179
13.1561
13.2052
13.1629
13.0174
12.7535
12.3642
11.8857
11.4409
11.1475
11.0196
10.9829
10.9443
10.8474
10.6858
10.4656
10.1219
9.41029
1095.06
1022.24
6.91462
7.71998
8.21084
8.58092
8.92276
9.26089
9.59845
9.94017
10.295
10.6733
11.0796
11.5026
11.9216
12.3142
12.6561
12.9298
13.1248
13.2367
13.263
13.1964
13.0178
12.7157
12.2982
11.8345
11.4432
11.2027
11.0834
11.0003
10.8862
10.7197
10.4984
10.1581
9.46587
1095.22
1022.24
6.90996
7.6996
8.17853
8.54005
8.87344
9.19984
9.52124
9.84208
10.1722
10.5244
10.9082
11.3195
11.7374
12.1409
12.5051
12.8108
13.0458
13.2035
13.2793
13.2719
13.1674
12.9476
12.6108
12.1903
11.7701
11.447
11.2438
11.1028
10.9563
10.7726
10.54
10.1896
9.48758
1095.25
1022.27
6.91083
7.68503
8.15304
8.50768
8.83485
9.15154
9.45814
9.75826
10.062
10.3845
10.7405
11.1339
11.5462
11.9575
12.3396
12.6689
12.9337
13.1271
13.2428
13.273
13.2184
13.0644
12.8004
12.442
12.0439
11.6901
11.4279
11.2311
11.0463
10.8389
10.5872
10.2143
9.48609
1095.2
1022.28
6.90929
7.66679
8.12533
8.47452
8.79719
9.10675
9.402
9.68497
9.96487
10.2576
10.5815
10.9473
11.3435
11.7534
12.1469
12.4975
12.789
13.0089
13.1524
13.2199
13.2022
13.0894
12.8867
12.5898
12.2356
11.8894
11.601
11.365
11.1455
10.9118
10.6362
10.233
9.4652
1095.08
1022.28
6.90387
7.65078
8.10197
8.44688
8.76599
9.06957
9.35459
9.6216
9.8787
10.1416
10.4311
10.7635
11.1382
11.5429
11.9462
12.3173
12.6309
12.8697
13.033
13.1236
13.1383
13.0706
12.9087
12.6667
12.3601
12.0382
11.7448
11.4862
11.2412
10.9843
10.6843
10.2467
9.43478
1094.97
1022.26
6.8915
7.63098
8.07742
8.42012
8.73774
9.03774
9.31542
9.56952
9.80627
10.0398
10.2908
10.5798
10.9184
11.3043
11.709
12.0983
12.4364
12.6982
12.8837
12.9979
13.0403
13.0091
12.8962
12.6966
12.4374
12.1482
11.864
11.5957
11.3334
11.057
10.7341
10.2675
9.41606
1094.9
1022.24
6.8777
7.61265
8.05565
8.39718
8.71448
9.01262
9.28524
9.52986
9.75101
9.96074
10.1781
10.4236
10.7173
11.0711
11.4662
11.8668
12.224
12.5066
12.7132
12.8492
12.9159
12.9164
12.8419
12.6909
12.4728
12.2169
11.9495
11.6819
11.4107
11.1207
10.7805
10.293
9.41779
1094.89
1022.22
6.86707
7.59669
8.03759
8.38006
8.69897
8.99734
9.26641
9.50384
9.71151
9.90015
10.0877
10.2943
10.5457
10.8615
11.2352
11.6366
12.0083
12.3116
12.5402
12.6984
12.7907
12.8172
12.7753
12.6625
12.4853
12.2618
12.0135
11.7519
11.4779
11.1803
10.83
10.3275
9.43116
1094.93
1022.22
6.85891
7.58199
8.02137
8.36603
8.68831
8.99021
9.26002
9.492
9.68738
9.85746
10.0161
10.1819
10.385
10.6573
11.0048
11.4016
11.7868
12.1134
12.3676
12.5513
12.6703
12.724
12.7114
12.6305
12.4849
12.2913
12.0622
11.8092
11.5363
11.2365
10.8834
10.3776
9.48228
1095.07
1022.23
6.8551
7.56992
8.00866
8.35729
8.68489
8.98965
9.2616
9.48984
9.67813
9.83136
9.9661
10.0974
10.2574
10.4842
10.797
11.1809
11.5732
11.9192
12.1977
12.4067
12.551
12.6307
12.6455
12.595
12.4826
12.3148
12.1034
11.8594
11.5894
11.2897
10.9356
10.4253
9.5224
1095.11
1022.25
6.84893
7.55475
7.99452
8.34939
8.68501
8.99894
9.27499
9.50421
9.68504
9.8236
9.9327
10.0265
10.1393
10.3156
10.5886
10.9572
11.3583
11.728
12.0344
12.2715
12.4422
12.5472
12.5863
12.5595
12.4675
12.3159
12.1229
11.8903
11.6275
11.3313
10.9772
10.4629
9.55023
1095.11
1022.26
6.83674
7.53542
7.97783
8.34042
8.68614
9.00901
9.29301
9.52659
9.70664
9.837
9.92609
9.98597
10.0427
10.1555
10.3712
10.7098
11.1129
11.5022
11.8391
12.1086
12.3089
12.4407
12.5036
12.5015
12.4336
12.3056
12.1241
11.9045
11.6506
11.3599
11.0086
10.4934
9.56697
1095.04
1022.26
6.81496
7.50949
7.95696
8.32917
8.68684
9.02258
9.31826
9.56071
9.74501
9.87294
9.94902
9.9805
9.99402
10.0262
10.1623
10.4423
10.8325
11.2423
11.6105
11.9194
12.1588
12.3246
12.4172
12.4387
12.3924
12.2829
12.1175
11.9064
11.6604
11.3752
11.0268
10.5106
9.56972
1094.95
1022.24
6.78078
7.4758
7.93048
8.31348
8.68464
9.03579
9.34701
9.60388
9.79963
9.93399
10.0077
10.0232
9.99884
9.97248
10.0052
10.1854
10.5173
10.9151
11.3062
11.6493
11.9334
12.1501
12.2928
12.3559
12.3428
12.2558
12.1043
11.9028
11.6621
11.3829
11.0378
10.5193
9.5659
1094.85
1022.2
6.73296
7.43241
7.89552
8.28956
8.67483
9.04307
9.37404
9.65115
9.86618
10.0171
10.1011
10.1176
10.0789
10.0096
9.97717
10.0728
10.3253
10.6711
11.0365
11.3794
11.6768
11.9155
12.0889
12.1925
12.2207
12.1732
12.0562
11.8818
11.6591
11.3877
11.048
10.5313
9.5668
1094.78
1022.12
6.67131
7.37989
7.85254
8.25772
8.6581
9.04492
9.39639
9.69654
9.93705
10.1133
10.2212
10.2558
10.2264
10.1447
10.0557
10.0575
10.2167
10.4981
10.8282
11.1586
11.4612
11.7156
11.9107
12.0396
12.0971
12.0809
11.9931
11.8426
11.6384
11.3831
11.0561
10.5538
9.59124
1094.77
1022.01
6.60065
7.31916
7.8007
8.21604
8.63112
9.03627
9.40907
9.73318
10.0013
10.208
10.3494
10.4197
10.4202
10.3535
10.2397
10.15
10.1803
10.363
10.6442
10.9568
11.2611
11.5284
11.7437
11.8972
11.9817
11.9933
11.9339
11.8061
11.6206
11.382
11.0682
10.5794
9.62575
1094.81
1021.91
6.52855
7.25431
7.74304
8.16791
8.59868
9.02323
9.41687
9.76349
10.0575
10.2942
10.4714
10.5853
10.6304
10.6075
10.5155
10.3804
10.2737
10.3007
10.4727
10.7481
11.0552
11.3402
11.5781
11.7577
11.871
11.9122
11.882
11.7768
11.61
11.3845
11.0862
10.6154
9.68343
1095.01
1021.82
6.46318
7.1893
7.68216
8.11612
8.56415
9.00974
9.42451
9.7918
10.1065
10.3674
10.5752
10.7287
10.8257
10.8606
10.8269
10.728
10.5867
10.4518
10.4377
10.5692
10.8229
11.1196
11.3896
11.6037
11.7518
11.8276
11.827
11.7553
11.6099
11.3997
11.1161
10.6661
9.76808
1095.32
1021.76
6.40969
7.12697
7.61915
8.06143
8.52896
8.99846
9.43547
9.82235
10.1543
10.4331
10.6627
10.8451
10.9812
11.0682
11.0974
11.0628
10.9681
10.8218
10.656
10.5901
10.6768
10.8948
11.1758
11.4325
11.6243
11.7402
11.775
11.7337
11.6104
11.4195
11.1529
10.725
9.86418
1095.63
1021.75
6.37424
7.07146
7.55665
8.00636
8.49581
8.99199
9.45282
9.85888
10.2058
10.4982
10.7428
10.9445
11.107
11.231
11.3095
11.3319
11.2978
11.2014
11.0534
10.8921
10.7844
10.8493
11.0171
11.2575
11.4854
11.6443
11.7166
11.7045
11.6064
11.4338
11.1838
10.7755
9.94444
1095.85
1021.75
6.34842
7.02026
7.4931
7.94807
8.46034
8.98469
9.46985
9.89436
10.255
10.559
10.815
11.0301
11.2105
11.3592
11.4718
11.5356
11.5466
11.4994
11.3869
11.2274
11.0643
10.9637
11.0179
11.1734
11.3721
11.556
11.663
11.6762
11.6024
11.4458
11.2102
10.8184
10.009
1095.99
1021.78
6.34425
6.9764
7.42963
7.88837
8.4239
8.97574
9.48477
9.92566
10.298
10.6117
10.8772
11.1031
11.2973
11.4642