/*--------------------------------*- C++ -*----------------------------------*\
| =========                 |                                                 |
| \\      /  F ield         | OpenFOAM: The Open Source CFD Toolbox           |
|  \\    /   O peration     | Version:  2.0.x                                 |
|   \\  /    A nd           | Web:      www.OpenFOAM.org                      |
|    \\/     M anipulation  |                                                 |
\*---------------------------------------------------------------------------*/
FoamFile
{
    version     2.0;
    format      ascii;
    class       surfaceScalarField;
    location    "750";
    object      phi;
}
// * * * * * * * * * * * * * * * * * * * * * * * * * * * * * * * * * * * * * //

dimensions      [1 0 -1 0 0 0 0];

internalField   nonuniform List<scalar> 
228225
(
-4.59385e-06
3.00177e-06
1.55211e-06
-1.10168e-05
3.73961e-06
2.68335e-06
-1.68428e-05
2.93867e-06
2.88722e-06
-2.13759e-05
1.70063e-06
2.83249e-06
-2.40355e-05
-5.35826e-08
2.71311e-06
-2.44558e-05
-2.14568e-06
2.56586e-06
-2.3075e-05
-3.82416e-06
2.44332e-06
-2.04717e-05
-4.95843e-06
2.35507e-06
-1.68497e-05
-5.87326e-06
2.2512e-06
-1.25497e-05
-6.48089e-06
2.1808e-06
-7.81603e-06
-6.87759e-06
2.14381e-06
-2.7719e-06
-7.17364e-06
2.12942e-06
2.37755e-06
-7.27988e-06
2.13033e-06
7.47748e-06
-7.24618e-06
2.14616e-06
1.2387e-05
-7.11447e-06
2.20489e-06
1.70034e-05
-6.89835e-06
2.28186e-06
2.13175e-05
-6.65031e-06
2.33607e-06
2.53017e-05
-6.36226e-06
2.37806e-06
2.89021e-05
-6.01733e-06
2.41682e-06
3.2095e-05
-5.63327e-06
2.44031e-06
3.48354e-05
-5.19824e-06
2.45781e-06
3.70744e-05
-4.71516e-06
2.47618e-06
3.87829e-05
-4.22558e-06
2.51704e-06
3.98327e-05
-3.61324e-06
2.56344e-06
4.0355e-05
-3.12453e-06
2.60225e-06
4.02477e-05
-2.5425e-06
2.64976e-06
3.94864e-05
-1.9353e-06
2.69661e-06
3.80046e-05
-1.26374e-06
2.74557e-06
3.54428e-05
-2.37874e-07
2.79976e-06
3.20326e-05
5.5179e-07
2.8584e-06
2.77806e-05
1.33205e-06
2.92e-06
2.23014e-05
2.49139e-06
2.98788e-06
1.54091e-05
3.82223e-06
3.07024e-06
7.19107e-06
5.18995e-06
3.02821e-06
5.33443e-06
1.85665e-06
9.39886e-07
1.18421e-06
8.77707e-07
4.6157e-07
2.44816e-06
1.76979e-06
-8.52887e-07
2.18581e-06
2.06735e-06
-1.70475e-06
4.72563e-07
2.07996e-06
-1.62058e-06
-2.10022e-06
1.96251e-06
-6.05358e-07
-4.99367e-06
1.8328e-06
1.15448e-06
-7.26019e-06
1.67621e-06
3.57486e-06
-8.92078e-06
1.54199e-06
6.37316e-06
-1.00071e-05
1.33552e-06
9.37736e-06
-1.06849e-05
1.19982e-06
1.24402e-05
-1.10573e-05
1.11688e-06
1.53905e-05
-1.11992e-05
1.07531e-06
1.81249e-05
-1.10753e-05
1.06099e-06
2.06379e-05
-1.0827e-05
1.06786e-06
2.29517e-05
-1.05039e-05
1.07566e-06
2.50613e-05
-1.00722e-05
1.06422e-06
2.69224e-05
-9.57442e-06
1.06304e-06
2.85e-05
-9.01583e-06
1.07599e-06
2.98012e-05
-8.41968e-06
1.10119e-06
3.07607e-05
-7.74228e-06
1.1495e-06
3.13593e-05
-7.01571e-06
1.21886e-06
3.1607e-05
-6.27948e-06
1.3167e-06
3.15724e-05
-5.56951e-06
1.37855e-06
3.1324e-05
-4.81183e-06
1.44703e-06
3.07112e-05
-4.0279e-06
1.51616e-06
2.98072e-05
-3.22896e-06
1.59048e-06
2.85805e-05
-2.37993e-06
1.67138e-06
2.69444e-05
-1.39605e-06
1.76851e-06
2.46427e-05
1.52302e-07
1.91151e-06
2.19829e-05
1.15831e-06
2.05339e-06
1.87425e-05
2.36714e-06
2.20534e-06
1.47003e-05
4.15567e-06
2.37794e-06
9.41313e-06
6.58708e-06
2.52244e-06
3.70989e-06
8.45866e-06
2.43463e-06
7.58281e-06
1.46151e-06
9.25739e-07
-3.50428e-07
6.08831e-07
3.26298e-06
-1.10107e-06
1.21191e-06
6.69857e-06
-2.6774e-06
1.42754e-06
1.07603e-05
-5.01106e-06
1.42176e-06
1.47441e-05
-7.41317e-06
1.32908e-06
1.80256e-05
-9.41295e-06
1.13769e-06
2.0605e-05
-1.0835e-05
9.95426e-07
2.26674e-05
-1.17396e-05
7.564e-07
2.41864e-05
-1.2248e-05
7.21795e-07
2.52884e-05
-1.24771e-05
6.90124e-07
2.60333e-05
-1.24734e-05
6.71127e-07
2.64642e-05
-1.23043e-05
6.74104e-07
2.67333e-05
-1.20153e-05
6.70859e-07
2.68743e-05
-1.16379e-05
6.69877e-07
2.6907e-05
-1.11885e-05
6.51856e-07
2.68546e-05
-1.06663e-05
6.46428e-07
2.67061e-05
-1.00815e-05
6.5554e-07
2.64622e-05
-9.4642e-06
6.92282e-07
2.61125e-05
-8.81122e-06
7.4124e-07
2.56939e-05
-8.1264e-06
8.02717e-07
2.52198e-05
-7.41276e-06
8.71072e-07
2.46972e-05
-6.69363e-06
9.36745e-07
2.40349e-05
-5.92128e-06
1.01408e-06
2.32283e-05
-5.08443e-06
1.07926e-06
2.22313e-05
-4.1896e-06
1.1587e-06
2.10614e-05
-3.29194e-06
1.23297e-06
1.97024e-05
-2.33839e-06
1.3175e-06
1.80917e-05
-1.20731e-06
1.42208e-06
1.64061e-05
2.76908e-07
1.56105e-06
1.46009e-05
1.26328e-06
1.70027e-06
1.22633e-05
2.84172e-06
1.86323e-06
9.28601e-06
5.08679e-06
2.04624e-06
5.51329e-06
8.15274e-06
2.20719e-06
2.00359e-06
9.91012e-06
2.05839e-06
8.4386e-06
1.14781e-06
-8.17362e-08
-7.72018e-07
5.03266e-07
1.51862e-06
-3.52988e-06
8.28381e-07
4.56526e-06
-6.49236e-06
7.68239e-07
8.03248e-06
-9.06565e-06
5.87306e-07
1.11838e-05
-1.09563e-05
3.91725e-07
1.3756e-05
-1.21974e-05
2.12256e-07
1.56927e-05
-1.28972e-05
1.25413e-07
1.70811e-05
-1.3246e-05
1.17958e-07
1.81374e-05
-1.33674e-05
6.31769e-08
1.89692e-05
-1.33426e-05
3.37303e-08
1.96335e-05
-1.31523e-05
1.45404e-08
2.01433e-05
-1.28192e-05
5.09241e-09
2.05157e-05
-1.24053e-05
1.75157e-08
2.07726e-05
-1.1938e-05
4.32719e-08
2.09368e-05
-1.1432e-05
7.92616e-08
2.10169e-05
-1.08766e-05
1.30298e-07
2.10149e-05
-1.02741e-05
1.94599e-07
2.09418e-05
-9.64199e-06
2.50807e-07
2.07891e-05
-8.97063e-06
3.12127e-07
2.05472e-05
-8.26166e-06
3.7723e-07
2.02149e-05
-7.51227e-06
4.31719e-07
1.97459e-05
-6.72193e-06
4.97346e-07
1.9147e-05
-5.89183e-06
5.69493e-07
1.84324e-05
-5.01589e-06
6.4604e-07
1.76024e-05
-4.08828e-06
7.28627e-07
1.66202e-05
-3.12804e-06
8.18325e-07
1.54838e-05
-2.12406e-06
9.22053e-07
1.41766e-05
-9.4706e-07
1.04695e-06
1.27528e-05
4.98478e-07
1.20227e-06
1.11327e-05
1.53269e-06
1.35065e-06
9.15668e-06
3.28446e-06
1.53329e-06
6.67529e-06
5.8346e-06
1.73358e-06
3.74372e-06
9.16648e-06
1.91782e-06
1.19551e-06
1.06853e-05
1.77306e-06
8.71673e-06
9.17376e-07
8.65514e-07
-1.87205e-06
2.34418e-07
3.09469e-06
-6.06737e-06
3.082e-07
5.90846e-06
-9.55323e-06
2.47029e-07
8.57496e-06
-1.18934e-05
1.61202e-07
1.0756e-05
-1.32251e-05
8.77889e-08
1.24362e-05
-1.39292e-05
5.14762e-08
1.37927e-05
-1.42733e-05
1.96034e-08
1.4931e-05
-1.43869e-05
2.57639e-09
1.58715e-05
-1.42835e-05
-2.43922e-08
1.66125e-05
-1.40255e-05
-5.80605e-08
1.72135e-05
-1.3674e-05
-7.93498e-08
1.76918e-05
-1.31941e-05
-1.03282e-07
1.80495e-05
-1.26483e-05
-1.1469e-07
1.8297e-05
-1.20772e-05
-1.08376e-07
1.84313e-05
-1.14695e-05
-9.68331e-08
1.84583e-05
-1.08226e-05
-8.1129e-08
1.83835e-05
-1.01359e-05
-6.34171e-08
1.81836e-05
-9.40355e-06
-3.84903e-08
1.78586e-05
-8.64009e-06
-5.58754e-09
1.74199e-05
-7.85923e-06
3.62333e-08
1.68867e-05
-7.06623e-06
8.71418e-08
1.62791e-05
-6.26e-06
1.45694e-07
1.56083e-05
-5.43332e-06
2.12262e-07
1.48926e-05
-4.57464e-06
2.74446e-07
1.41261e-05
-3.67304e-06
3.51365e-07
1.32861e-05
-2.7267e-06
4.38623e-07
1.23387e-05
-1.71468e-06
5.38069e-07
1.12433e-05
-5.10883e-07
6.5918e-07
1.01963e-05
7.382e-07
8.0736e-07
8.91304e-06
1.86358e-06
9.52397e-07
7.34779e-06
3.71532e-06
1.13444e-06
5.26766e-06
6.54725e-06
1.36752e-06
2.93354e-06
9.95068e-06
1.54995e-06
8.98697e-07
1.12608e-05
1.45937e-06
8.88384e-06
7.31584e-07
8.64062e-07
-2.9114e-06
1.7502e-07
2.82515e-06
-8.2888e-06
2.6013e-07
4.98347e-06
-1.19586e-05
2.46869e-07
6.93675e-06
-1.40017e-05
1.54914e-07
8.64544e-06
-1.49899e-05
5.60694e-08
1.01594e-05
-1.53953e-05
-4.79004e-08
1.15196e-05
-1.54852e-05
-1.48386e-07
1.2692e-05
-1.53379e-05
-2.21473e-07
1.36215e-05
-1.49344e-05
-2.78696e-07
1.42738e-05
-1.4362e-05
-3.15964e-07
1.47024e-05
-1.3765e-05
-3.37628e-07
1.49891e-05
-1.31353e-05
-3.45616e-07
1.51811e-05
-1.24866e-05
-3.53638e-07
1.52922e-05
-1.1822e-05
-3.66439e-07
1.53182e-05
-1.11238e-05
-3.71773e-07
1.52478e-05
-1.03837e-05
-3.68494e-07
1.50639e-05
-9.59675e-06
-3.55258e-07
1.47671e-05
-8.77536e-06
-3.31513e-07
1.43757e-05
-7.95109e-06
-2.97661e-07
1.39172e-05
-7.14556e-06
-2.55132e-07
1.34122e-05
-6.35554e-06
-2.05772e-07
1.28717e-05
-5.57225e-06
-1.47317e-07
1.2304e-05
-4.78472e-06
-8.09116e-08
1.17267e-05
-3.97937e-06
-1.80326e-08
1.11366e-05
-3.13984e-06
5.68336e-08
1.05141e-05
-2.24479e-06
1.40494e-07
9.80641e-06
-1.24392e-06
2.36876e-07
9.00225e-06
-6.52949e-08
3.58494e-07
8.28105e-06
9.62292e-07
4.97021e-07
7.23883e-06
2.24531e-06
6.60376e-07
5.90667e-06
4.17578e-06
8.71562e-07
4.16124e-06
7.18277e-06
1.10979e-06
2.22867e-06
1.05507e-05
1.33239e-06
5.67027e-07
1.16999e-05
1.22238e-06
8.88918e-06
5.6168e-07
8.38955e-07
-3.83159e-06
8.09335e-08
2.41117e-06
-1.00175e-05
1.56231e-07
3.95394e-06
-1.36681e-05
1.66615e-07
5.2375e-06
-1.5376e-05
9.06007e-08
6.31492e-06
-1.60658e-05
-1.67529e-09
7.26804e-06
-1.62482e-05
-1.0034e-07
8.08631e-06
-1.61164e-05
-1.87165e-07
8.71484e-06
-1.57048e-05
-2.61686e-07
9.21585e-06
-1.50963e-05
-3.39108e-07
9.64727e-06
-1.43804e-05
-4.13107e-07
9.97878e-06
-1.36134e-05
-4.83151e-07
1.02122e-05
-1.28275e-05
-5.41313e-07
1.03544e-05
-1.20447e-05
-5.8421e-07
1.04171e-05
-1.12737e-05
-6.10987e-07
1.04241e-05
-1.05086e-05
-6.22317e-07
1.03926e-05
-9.73339e-06
-6.18852e-07
1.03265e-05
-8.92956e-06
-6.01082e-07
1.02146e-05
-8.09342e-06
-5.70096e-07
1.00544e-05
-7.26356e-06
-5.27439e-07
9.85016e-06
-6.46682e-06
-4.74504e-07
9.6025e-06
-5.69471e-06
-4.1322e-07
9.31303e-06
-4.93469e-06
-3.48129e-07
8.98325e-06
-4.1759e-06
-2.79089e-07
8.61891e-06
-3.40739e-06
-2.07682e-07
8.23515e-06
-2.61296e-06
-1.43164e-07
7.82255e-06
-1.76219e-06
-7.00601e-08
7.37513e-06
-8.07563e-07
1.10083e-08
6.94286e-06
2.60595e-07
1.06322e-07
6.48646e-06
1.20972e-06
2.08898e-07
5.76211e-06
2.62441e-06
3.4516e-07
4.6952e-06
4.7045e-06
5.38082e-07
3.27342e-06
7.79691e-06
8.0755e-07
1.75302e-06
1.10423e-05
1.02874e-06
4.20759e-07
1.20566e-05
9.75374e-07
8.87093e-06
4.39004e-07
8.16383e-07
-4.75239e-06
1.0409e-07
2.14286e-06
-1.16283e-05
2.84191e-07
3.32163e-06
-1.52014e-05
3.54357e-07
4.29577e-06
-1.66307e-05
2.80408e-07
5.14551e-06
-1.70826e-05
1.66996e-07
5.90802e-06
-1.70488e-05
3.80523e-08
6.55235e-06
-1.6685e-05
-7.57784e-08
7.04144e-06
-1.60058e-05
-1.88197e-07
7.35723e-06
-1.51136e-05
-2.98607e-07
7.51292e-06
-1.41328e-05
-4.03287e-07
7.53451e-06
-1.31392e-05
-4.95888e-07
7.48871e-06
-1.22108e-05
-5.70991e-07
7.43231e-06
-1.13617e-05
-6.26711e-07
7.39554e-06
-1.05726e-05
-6.64409e-07
7.38807e-06
-9.815e-06
-6.86156e-07
7.40992e-06
-9.06187e-06
-6.93446e-07
7.45813e-06
-8.29059e-06
-6.87264e-07
7.51929e-06
-7.48663e-06
-6.6803e-07
7.56191e-06
-6.66927e-06
-6.36989e-07
7.57454e-06
-5.8838e-06
-5.95725e-07
7.55066e-06
-5.12515e-06
-5.45772e-07
7.48463e-06
-4.38011e-06
-4.88641e-07
7.37168e-06
-3.63621e-06
-4.26823e-07
7.20622e-06
-2.8812e-06
-3.60836e-07
6.98984e-06
-2.09892e-06
-2.97775e-07
6.7154e-06
-1.26416e-06
-2.23716e-07
6.39369e-06
-3.46724e-07
-1.39274e-07
6.09471e-06
6.00066e-07
-4.06406e-08
5.64379e-06
1.59438e-06
6.60498e-08
4.99412e-06
3.07251e-06
2.0129e-07
4.02792e-06
5.28456e-06
3.8586e-07
2.75593e-06
8.44005e-06
6.28601e-07
1.44579e-06
1.15218e-05
8.30346e-07
3.12701e-07
1.24019e-05
7.874e-07
8.84533e-06
3.38288e-07
5.66242e-07
-5.44351e-06
1.24545e-07
1.38184e-06
-1.28031e-05
3.58982e-07
1.9778e-06
-1.62435e-05
4.45997e-07
2.39948e-06
-1.74266e-05
3.74119e-07
2.75999e-06
-1.77017e-05
2.58523e-07
3.09954e-06
-1.75195e-05
1.31098e-07
3.36427e-06
-1.69563e-05
6.43404e-09
3.53784e-06
-1.60577e-05
-1.21714e-07
3.61266e-06
-1.49258e-05
-2.6279e-07
3.58547e-06
-1.37023e-05
-4.03427e-07
3.53211e-06
-1.25583e-05
-5.27669e-07
3.51793e-06
-1.15716e-05
-6.25049e-07
3.56299e-06
-1.07135e-05
-6.93286e-07
3.6669e-06
-9.94023e-06
-7.36354e-07
3.82021e-06
-9.20884e-06
-7.59556e-07
4.01193e-06
-8.48687e-06
-7.66797e-07
4.23271e-06
-7.75115e-06
-7.603e-07
4.47333e-06
-6.98594e-06
-7.41398e-07
4.70431e-06
-6.18909e-06
-7.11235e-07
4.89961e-06
-5.40662e-06
-6.72565e-07
5.05318e-06
-4.65161e-06
-6.27191e-07
5.16286e-06
-3.91347e-06
-5.76399e-07
5.22664e-06
-3.17864e-06
-5.21448e-07
5.2425e-06
-2.43361e-06
-4.63541e-07
5.2143e-06
-1.66359e-06
-4.07234e-07
5.14121e-06
-8.49777e-07
-3.41403e-07
5.0282e-06
3.15349e-08
-2.65365e-07
4.91653e-06
8.94745e-07
-1.83146e-07
4.59909e-06
1.99883e-06
-8.71865e-08
4.08028e-06
3.55503e-06
3.60591e-08
3.28938e-06
5.87081e-06
2.04394e-07
2.24538e-06
9.05797e-06
4.25867e-07
1.16425e-06
1.19717e-05
6.30975e-07
2.33094e-07
1.27131e-05
6.19679e-07
8.827e-06
2.51415e-07
3.77193e-07
-6.0164e-06
1.95337e-07
7.92465e-07
-1.3753e-05
5.34404e-07
9.89471e-07
-1.71166e-05
6.75868e-07
1.08766e-06
-1.81526e-05
6.27704e-07
1.17102e-06
-1.83007e-05
5.15485e-07
1.24693e-06
-1.79743e-05
3.78743e-07
1.28778e-06
-1.72295e-05
2.32214e-07
1.27526e-06
-1.61199e-05
7.45881e-08
1.23572e-06
-1.47998e-05
-8.65908e-08
1.22742e-06
-1.34403e-05
-2.53912e-07
1.27143e-06
-1.21942e-05
-4.08199e-07
1.37032e-06
-1.11326e-05
-5.38108e-07
1.52715e-06
-1.02381e-05
-6.32394e-07
1.74153e-06
-9.45858e-06
-6.96148e-07
2.00327e-06
-8.73516e-06
-7.35523e-07
2.30026e-06
-8.02788e-06
-7.56084e-07
2.62287e-06
-7.31233e-06
-7.61523e-07
2.96317e-06
-6.57251e-06
-7.53837e-07
3.3094e-06
-5.8011e-06
-7.34341e-07
3.62279e-06
-5.01503e-06
-7.05087e-07
3.88912e-06
-4.24939e-06
-6.68669e-07
4.10373e-06
-3.50178e-06
-6.26412e-07
4.26448e-06
-2.76028e-06
-5.79237e-07
4.37084e-06
-2.01203e-06
-5.28074e-07
4.42867e-06
-1.24492e-06
-4.76641e-07
4.43837e-06
-4.42912e-07
-4.16716e-07
4.4162e-06
4.0283e-07
-3.49292e-07
4.3146e-06
1.27283e-06
-2.76697e-07
4.04438e-06
2.45695e-06
-1.88186e-07
3.56861e-06
4.10519e-06
-7.47403e-08
2.85497e-06
6.50484e-06
7.92505e-08
1.94242e-06
9.68788e-06
2.82321e-07
1.01616e-06
1.24273e-05
4.70284e-07
2.17006e-07
1.30272e-05
4.84644e-07
8.84435e-06
1.99646e-07
1.27466e-07
-6.3907e-06
2.46473e-07
1.23634e-07
-1.4372e-05
6.22579e-07
-6.66654e-08
-1.77024e-05
7.75991e-07
-2.97636e-07
-1.86684e-05
7.46702e-07
-4.87863e-07
-1.87626e-05
6.52061e-07
-6.13242e-07
-1.83768e-05
5.2777e-07
-6.51907e-07
-1.75771e-05
3.86185e-07
-5.8169e-07
-1.64121e-05
2.21836e-07
-4.21272e-07
-1.50027e-05
4.23172e-08
-2.06146e-07
-1.35226e-05
-1.33005e-07
2.08603e-08
-1.2129e-05
-2.9244e-07
2.30098e-07
-1.09183e-05
-4.23581e-07
4.51986e-07
-9.91896e-06
-5.41149e-07
6.88088e-07
-9.06786e-06
-6.2695e-07
9.51922e-07
-8.31562e-06
-6.83498e-07
1.24444e-06
-7.60346e-06
-7.17044e-07
1.56119e-06
-6.89649e-06
-7.32705e-07
1.89752e-06
-6.1748e-06
-7.34155e-07
2.24779e-06
-5.42777e-06
-7.23718e-07
2.5911e-06
-4.65553e-06
-7.02923e-07
2.90112e-06
-3.88463e-06
-6.74898e-07
3.16983e-06
-3.12932e-06
-6.41279e-07
3.39287e-06
-2.38072e-06
-6.02716e-07
3.56767e-06
-1.62683e-06
-5.60131e-07
3.69747e-06
-8.58203e-07
-5.16654e-07
3.78445e-06
-6.44051e-08
-4.65625e-07
3.84425e-06
7.50212e-07
-4.07332e-07
3.76132e-06
1.69664e-06
-3.41095e-07
3.53079e-06
2.94654e-06
-2.59311e-07
3.11112e-06
4.67883e-06
-1.54294e-07
2.47125e-06
7.15769e-06
-1.3316e-08
1.66613e-06
1.03238e-05
1.68919e-07
8.70882e-07
1.2884e-05
3.38215e-07
1.86943e-07
1.33392e-05
3.71438e-07
8.8769e-06
1.5437e-07
-7.80935e-08
-6.61496e-06
3.01972e-07
-3.7024e-07
-1.48078e-05
7.27767e-07
-7.56178e-07
-1.82379e-05
9.21324e-07
-1.12758e-06
-1.9228e-05
9.3081e-07
-1.42615e-06
-1.93252e-05
8.61039e-07
-1.62007e-06
-1.89396e-05
7.56592e-07
-1.68482e-06
-1.81456e-05
6.33089e-07
-1.5881e-06
-1.69956e-05
4.86585e-07
-1.32669e-06
-1.5578e-05
3.1377e-07
-9.51872e-07
-1.40219e-05
1.24387e-07
-5.43212e-07
-1.24735e-05
-6.43662e-08
-1.66395e-07
-1.10613e-05
-2.34055e-07
1.36415e-07
-9.86069e-06
-3.61245e-07
4.00734e-07
-8.85929e-06
-4.73039e-07
6.57547e-07
-8.00957e-06
-5.63001e-07
9.23484e-07
-7.24632e-06
-6.23221e-07
1.21214e-06
-6.52511e-06
-6.60181e-07
1.52354e-06
-5.80756e-06
-6.78774e-07
1.85241e-06
-5.07381e-06
-6.82968e-07
2.1901e-06
-4.31766e-06
-6.75696e-07
2.50888e-06
-3.5448e-06
-6.58748e-07
2.79328e-06
-2.77906e-06
-6.34804e-07
3.03551e-06
-2.01824e-06
-6.04842e-07
3.23277e-06
-1.25418e-06
-5.70054e-07
3.38531e-06
-4.7773e-07
-5.33159e-07
3.49598e-06
3.14301e-07
-4.89534e-07
3.55347e-06
1.13146e-06
-4.38931e-07
3.46668e-06
2.16073e-06
-3.77524e-07
3.23014e-06
3.4847e-06
-3.01921e-07
2.81848e-06
5.29533e-06
-2.05199e-07
2.22021e-06
7.83257e-06
-7.69742e-08
1.49814e-06
1.09602e-05
8.53976e-08
8.01549e-07
1.33428e-05
2.37475e-07
1.9719e-07
1.36588e-05
2.84251e-07
8.94862e-06
1.25453e-07
-2.09267e-07
-6.72421e-06
3.18179e-07
-7.63123e-07
-1.49832e-05
7.29018e-07
-1.35379e-06
-1.85732e-05
9.25715e-07
-1.85466e-06
-1.96981e-05
9.70824e-07
-2.25572e-06
-1.98637e-05
9.39408e-07
-2.52378e-06
-1.95446e-05
8.72889e-07
-2.62816e-06
-1.88292e-05
7.87847e-07
-2.53605e-06
-1.77676e-05
6.79694e-07
-2.23224e-06
-1.64232e-05
5.41232e-07
-1.74433e-06
-1.48847e-05
3.74606e-07
-1.15015e-06
-1.32567e-05
1.88891e-07
-5.5628e-07
-1.16544e-05
-9.72796e-10
-5.17436e-08
-1.01882e-05
-1.77219e-07
3.3449e-07
-8.93259e-06
-3.13128e-07
6.19604e-07
-7.88409e-06
-4.10761e-07
8.66366e-07
-6.9994e-06
-4.93834e-07
1.11015e-06
-6.21265e-06
-5.56388e-07
1.36831e-06
-5.47064e-06
-5.95211e-07
1.64834e-06
-4.73808e-06
-6.1589e-07
1.94308e-06
-3.99013e-06
-6.22415e-07
2.23803e-06
-3.22221e-06
-6.17673e-07
2.51361e-06
-2.45104e-06
-6.03739e-07
2.75699e-06
-1.67911e-06
-5.82656e-07
2.96306e-06
-9.04271e-07
-5.56128e-07
3.13434e-06
-1.22527e-07
-5.26628e-07
3.27263e-06
6.65748e-07
-4.89893e-07
3.299e-06
1.55071e-06
-4.458e-07
3.20879e-06
2.64162e-06
-3.90918e-07
2.97554e-06
4.04024e-06
-3.22588e-07
2.57167e-06
5.93406e-06
-2.35194e-07
2.00012e-06
8.52401e-06
-1.20241e-07
1.33873e-06
1.1599e-05
2.22802e-08
7.21273e-07
1.38013e-05
1.58604e-07
1.82983e-07
1.39796e-05
2.16993e-07
9.02695e-06
1.04642e-07
-2.96879e-07
-6.76132e-06
3.33691e-07
-9.40176e-07
-1.50709e-05
7.30808e-07
-1.6328e-06
-1.88039e-05
9.23201e-07
-2.22863e-06
-2.00947e-05
9.92349e-07
-2.72357e-06
-2.03634e-05
9.94537e-07
-3.08839e-06
-2.01457e-05
9.65807e-07
-3.2896e-06
-1.95393e-05
9.11224e-07
-3.29377e-06
-1.85991e-05
8.35587e-07
-3.07252e-06
-1.73792e-05
7.34519e-07
-2.62083e-06
-1.5943e-05
6.06436e-07
-1.97237e-06
-1.43598e-05
4.54433e-07
-1.20779e-06
-1.27032e-05
2.84009e-07
-4.43206e-07
-1.10577e-05
1.0468e-07
2.10718e-07
-9.51826e-06
-6.84539e-08
7.09858e-07
-8.16449e-06
-2.18931e-07
1.06522e-06
-7.02611e-06
-3.28821e-07
1.32688e-06
-6.0665e-06
-4.07952e-07
1.55415e-06
-5.22568e-06
-4.72377e-07
1.77734e-06
-4.44377e-06
-5.17637e-07
2.01227e-06
-3.68183e-06
-5.43363e-07
2.25867e-06
-2.91474e-06
-5.53998e-07
2.49923e-06
-2.13908e-06
-5.52655e-07
2.71893e-06
-1.35716e-06
-5.41775e-07
2.90807e-06
-5.6958e-07
-5.23969e-07
3.06332e-06
2.23866e-07
-5.01776e-07
3.18059e-06
1.01987e-06
-4.71545e-07
3.18538e-06
1.97811e-06
-4.32369e-07
3.07372e-06
3.13654e-06
-3.83481e-07
2.82661e-06
4.60945e-06
-3.22369e-07
2.42278e-06
6.58173e-06
-2.44157e-07
1.87168e-06
9.21681e-06
-1.41994e-07
1.25644e-06
1.22317e-05
-1.76804e-08
6.94003e-07
1.42601e-05
1.03375e-07
1.96939e-07
1.43086e-05
1.67632e-07
9.13121e-06
9.26695e-08
-3.73174e-07
-6.72468e-06
3.36254e-07
-1.09494e-06
-1.50515e-05
7.02222e-07
-1.92067e-06
-1.88442e-05
8.65934e-07
-2.67475e-06
-2.02722e-05
9.31496e-07
-3.30642e-06
-2.06744e-05
9.42631e-07
-3.78563e-06
-2.05968e-05
9.30221e-07
-4.07871e-06
-2.01461e-05
8.99717e-07
-4.15432e-06
-1.93788e-05
8.55142e-07
-3.99097e-06
-1.83386e-05
7.95922e-07
-3.58123e-06
-1.70694e-05
7.16563e-07
-2.93917e-06
-1.56181e-05
6.16077e-07
-2.10478e-06
-1.4033e-05
4.95211e-07
-1.15275e-06
-1.23653e-05
3.55393e-07
-1.95045e-07
-1.06765e-05
2.00397e-07
6.46493e-07
-9.04624e-06
4.00428e-08
1.28979e-06
-7.55996e-06
-1.09601e-07
1.73039e-06
-6.27504e-06
-2.32209e-07
2.015e-06
-5.19106e-06
-3.1936e-07
2.21438e-06
-4.2605e-06
-3.82772e-07
2.38713e-06
-3.42232e-06
-4.32378e-07
2.5588e-06
-2.62371e-06
-4.62815e-07
2.73052e-06
-1.83286e-06
-4.78062e-07
2.89033e-06
-1.03629e-06
-4.80789e-07
3.02998e-06
-2.35512e-07
-4.7383e-07
3.15778e-06
5.55786e-07
-4.59848e-07
3.20524e-06
1.40876e-06
-4.3648e-07
3.16853e-06
2.41828e-06
-4.03626e-07
3.02677e-06
3.63931e-06
-3.61213e-07
2.7553e-06
5.18813e-06
-3.07439e-07
2.33775e-06
7.23744e-06
-2.3844e-07
1.79122e-06
9.91196e-06
-1.48882e-07
1.20187e-06
1.28611e-05
-4.03413e-08
6.74252e-07
1.47207e-05
6.67269e-08
2.0416e-07
1.4645e-05
1.33355e-07
9.24815e-06
8.72117e-08
-4.47586e-07
-6.59653e-06
3.19235e-07
-1.18751e-06
-1.49394e-05
6.27705e-07
-1.95664e-06
-1.88515e-05
7.76344e-07
-2.67853e-06
-2.04013e-05
8.50875e-07
-3.29449e-06
-2.093e-05
8.71512e-07
-3.78591e-06
-2.09723e-05
8.66894e-07
-4.11126e-06
-2.06707e-05
8.49947e-07
-4.239e-06
-2.00777e-05
8.266e-07
-4.14469e-06
-1.92279e-05
7.94996e-07
-3.81639e-06
-1.81498e-05
7.52017e-07
-3.25881e-06
-1.68711e-05
6.95316e-07
-2.49317e-06
-1.5423e-05
6.24288e-07
-1.55634e-06
-1.38401e-05
5.37857e-07
-5.06949e-07
-1.216e-05
4.33954e-07
5.63443e-07
-1.04278e-05
3.11062e-07
1.53661e-06
-8.70538e-06
1.7212e-07
2.30696e-06
-7.07351e-06
2.79987e-08
2.83011e-06
-5.61006e-06
-1.04277e-07
3.13402e-06
-4.35606e-06
-2.08443e-07
3.28391e-06
-3.29279e-06
-2.79512e-07
3.3599e-06
-2.36412e-06
-3.35667e-07
3.40704e-06
-1.50593e-06
-3.74146e-07
3.44148e-06
-6.75257e-07
-3.95549e-07
3.47969e-06
1.29728e-07
-4.03529e-07
3.51838e-06
9.16325e-07
-3.99314e-07
3.47875e-06
1.83278e-06
-3.84481e-07
3.36245e-06
2.89411e-06
-3.59635e-07
3.15495e-06
4.17146e-06
-3.24781e-07
2.83358e-06
5.78814e-06
-2.78791e-07
2.38229e-06
7.90743e-06
-2.18873e-07
1.81974e-06
1.06155e-05
-1.4116e-07
1.23246e-06
1.34949e-05
-4.66403e-08
7.11148e-07
1.51941e-05
4.77405e-08
2.37474e-07
1.50058e-05
1.12613e-07
9.39874e-06
8.68772e-08
-4.14927e-07
-6.4699e-06
2.88228e-07
-1.05451e-06
-1.48402e-05
5.40293e-07
-1.65689e-06
-1.89163e-05
6.67162e-07
-2.19939e-06
-2.05835e-05
7.24738e-07
-2.67043e-06
-2.12168e-05
7.5774e-07
-3.05275e-06
-2.13558e-05
7.65794e-07
-3.3048e-06
-2.11753e-05
7.56525e-07
-3.39877e-06
-2.07226e-05
7.38813e-07
-3.31711e-06
-2.00258e-05
7.16181e-07
-3.0518e-06
-1.91048e-05
6.89665e-07
-2.60369e-06
-1.79777e-05
6.58409e-07
-1.9827e-06
-1.66668e-05
6.22784e-07
-1.20508e-06
-1.51999e-05
5.82084e-07
-2.92729e-07
-1.36057e-05
5.33292e-07
7.20329e-07
-1.19122e-05
4.71247e-07
1.77322e-06
-1.01485e-05
3.9012e-07
2.76863e-06
-8.35563e-06
2.86639e-07
3.59251e-06
-6.5984e-06
1.6439e-07
4.15868e-06
-4.95834e-06
3.60536e-08
4.45505e-06
-3.50619e-06
-8.30289e-08
4.52634e-06
-2.2634e-06
-1.72066e-07
4.45547e-06
-1.19884e-06
-2.36265e-07
4.33054e-06
-2.66608e-07
-2.83774e-07
4.23878e-06
5.33311e-07
-3.11869e-07
4.10654e-06
1.37186e-06
-3.23356e-07
3.93313e-06
2.32632e-06
-3.20202e-07
3.70379e-06
3.42885e-06
-3.05488e-07
3.39994e-06
4.75502e-06
-2.79805e-07
3.00249e-06
6.42795e-06
-2.4248e-07
2.49804e-06
8.60311e-06
-1.91353e-07
1.90354e-06
1.13343e-05
-1.24437e-07
1.3016e-06
1.41388e-05
-4.20164e-08
7.64786e-07
1.56898e-05
4.10933e-08
2.66501e-07
1.54013e-05
1.02652e-07
9.57665e-06
8.85891e-08
-2.5794e-07
-6.46598e-06
2.53953e-07
-5.77222e-07
-1.50141e-05
4.931e-07
-8.0022e-07
-1.92933e-05
5.99903e-07
-9.85613e-07
-2.10529e-05
6.54767e-07
-1.14332e-06
-2.17349e-05
6.75782e-07
-1.25536e-06
-2.19204e-05
6.76564e-07
-1.30706e-06
-2.1789e-05
6.65447e-07
-1.28385e-06
-2.13917e-05
6.45862e-07
-1.17494e-06
-2.07555e-05
6.20735e-07
-9.73316e-07
-1.98988e-05
5.92348e-07
-6.73719e-07
-1.88397e-05
5.62443e-07
-2.73247e-07
-1.76016e-05
5.34291e-07
2.29633e-07
-1.62136e-05
5.10881e-07
8.35927e-07
-1.47045e-05
4.92447e-07
1.54497e-06
-1.30965e-05
4.7529e-07
2.3489e-06
-1.14047e-05
4.52274e-07
3.2182e-06
-9.63941e-06
4.1446e-07
4.08593e-06
-7.81981e-06
3.53672e-07
4.84741e-06
-5.98587e-06
2.66045e-07
5.38797e-06
-4.20389e-06
1.57141e-07
5.63747e-06
-2.55332e-06
4.04253e-08
5.60675e-06
-1.10229e-06
-6.58344e-08
5.39158e-06
9.54243e-08
-1.46858e-07
5.15407e-06
9.6576e-07
-1.94929e-07
4.84831e-06
1.90437e-06
-2.2674e-07
4.50969e-06
2.90686e-06
-2.41907e-07
4.1384e-06
4.04248e-06
-2.42339e-07
3.71789e-06
5.40488e-06
-2.29343e-07
3.22902e-06
7.11982e-06
-2.02977e-07
2.65916e-06
9.33535e-06
-1.62358e-07
2.02395e-06
1.20749e-05
-1.05362e-07
1.39768e-06
1.4798e-05
-3.29783e-08
8.31504e-07
1.6215e-05
4.09302e-08
2.98657e-07
1.58357e-05
9.84784e-08
9.78693e-06
8.83818e-08
-5.72353e-09
-6.65197e-06
1.91623e-07
1.77914e-07
-1.55651e-05
3.67339e-07
4.66424e-07
-2.00507e-05
4.68892e-07
7.24738e-07
-2.18554e-05
5.44126e-07
9.26179e-07
-2.2525e-05
5.88705e-07
1.08997e-06
-2.2688e-05
6.03837e-07
1.23752e-06
-2.25345e-05
5.97934e-07
1.37858e-06
-2.21087e-05
5.75915e-07
1.51613e-06
-2.14368e-05
5.43785e-07
1.64984e-06
-2.05376e-05
5.05057e-07
1.78329e-06
-1.94359e-05
4.62715e-07
1.9285e-06
-1.81684e-05
4.21572e-07
2.10669e-06
-1.67795e-05
3.87713e-07
2.34456e-06
-1.53082e-05
3.65871e-07
2.66766e-06
-1.37769e-05
3.57227e-07
3.09377e-06
-1.21893e-05
3.58562e-07
3.62837e-06
-1.05368e-05
3.62791e-07
4.25604e-06
-8.80766e-06
3.6018e-07
4.93012e-06
-7e-06
3.40053e-07
5.55966e-06
-5.12757e-06
2.94151e-07
6.01875e-06
-3.22981e-06
2.17405e-07
6.19004e-06
-1.38898e-06
1.15407e-07
6.05606e-06
2.2094e-07
8.4678e-09
5.77688e-06
1.30912e-06
-6.41664e-08
5.38196e-06
2.41947e-06
-1.20182e-07
4.92678e-06
3.51889e-06
-1.5684e-07
4.4389e-06
4.70594e-06
-1.75579e-07
3.91808e-06
6.10381e-06
-1.78102e-07
3.34948e-06
7.85358e-06
-1.6516e-07
2.72115e-06
1.00998e-05
-1.36106e-07
2.05075e-06
1.28345e-05
-8.91638e-08
1.4085e-06
1.54663e-05
-2.59679e-08
8.2679e-07
1.67567e-05
4.00542e-08
2.83451e-07
1.62859e-05
9.31879e-08
9.98784e-06
8.25418e-08
2.55547e-07
-7.06607e-06
1.58467e-07
7.74348e-07
-1.64163e-05
3.32366e-07
1.3481e-06
-2.10522e-05
4.27724e-07
1.8699e-06
-2.2862e-05
4.84783e-07
2.30962e-06
-2.34876e-05
5.22791e-07
2.66243e-06
-2.35853e-05
5.44507e-07
2.93612e-06
-2.33575e-05
5.49278e-07
3.1278e-06
-2.28358e-05
5.35429e-07
3.23634e-06
-2.20513e-05
5.05945e-07
3.26343e-06
-2.10288e-05
4.64063e-07
3.22026e-06
-1.98061e-05
4.13402e-07
3.13136e-06
-1.84387e-05
3.59166e-07
3.03365e-06
-1.69902e-05
3.08336e-07
2.97058e-06
-1.55128e-05
2.6769e-07
2.98239e-06
-1.40305e-05
2.41826e-07
3.09874e-06
-1.25378e-05
2.32089e-07
3.33663e-06
-1.10111e-05
2.36475e-07
3.69931e-06
-9.42007e-06
2.49754e-07
4.17157e-06
-7.73605e-06
2.6382e-07
4.71039e-06
-5.93463e-06
2.68271e-07
5.23072e-06
-4.00095e-06
2.50848e-07
5.60268e-06
-1.96292e-06
2.02017e-07
5.7085e-06
-8.60863e-09
1.23767e-07
5.59179e-06
1.37153e-06
5.43161e-08
5.27908e-06
2.74965e-06
-1.74348e-08
4.84023e-06
4.03202e-06
-7.42416e-08
4.33445e-06
5.32414e-06
-1.12375e-07
3.78658e-06
6.78387e-06
-1.32135e-07
3.19413e-06
8.57998e-06
-1.3389e-07
2.55073e-06
1.08602e-05
-1.16987e-07
1.88108e-06
1.35842e-05
-7.99549e-08
1.25939e-06
1.61133e-05
-2.53093e-08
7.04541e-07
1.72781e-05
3.34805e-08
2.04847e-07
1.67042e-05
8.1511e-08
1.01277e-05
6.50308e-08
3.49769e-07
-7.575e-06
1.58909e-07
9.05884e-07
-1.73268e-05
3.54261e-07
1.42505e-06
-2.20195e-05
4.48056e-07
1.86813e-06
-2.37877e-05
4.82574e-07
2.22672e-06
-2.43466e-05
5.00382e-07
2.49992e-06
-2.437e-05
5.11409e-07
2.67342e-06
-2.40445e-05
5.13449e-07
2.73958e-06
-2.34034e-05
5.01391e-07
2.69844e-06
-2.24849e-05
4.74696e-07
2.56238e-06
-2.13272e-05
4.34424e-07
2.35997e-06
-1.99874e-05
3.83619e-07
2.13254e-06
-1.85383e-05
3.27076e-07
1.92345e-06
-1.7052e-05
2.70857e-07
1.76923e-06
-1.55792e-05
2.20549e-07
1.69676e-06
-1.41386e-05
1.80568e-07
1.7249e-06
-1.27199e-05
1.53953e-07
1.8659e-06
-1.1294e-05
1.41789e-07
2.12506e-06
-9.8223e-06
1.43032e-07
2.49716e-06
-8.26251e-06
1.54341e-07
2.96253e-06
-6.56992e-06
1.69887e-07
3.47997e-06
-4.70045e-06
1.82025e-07
3.97928e-06
-2.6416e-06
1.79341e-07
4.35078e-06
-5.32536e-07
1.52397e-07
4.48379e-06
1.12856e-06
1.09937e-07
4.40755e-06
2.77456e-06
5.13055e-08
4.13785e-06
4.31147e-06
-9.76484e-09
3.73635e-06
5.78521e-06
-5.95775e-08
3.25332e-06
7.36021e-06
-9.33189e-08
2.70789e-06
9.23424e-06
-1.08831e-07
2.10815e-06
1.1564e-05
-1.03988e-07
1.49275e-06
1.42765e-05
-7.6923e-08
9.4481e-07
1.66921e-05
-3.07996e-08
4.7407e-07
1.77281e-05
2.08037e-08
8.31048e-08
1.70313e-05
6.38513e-08
1.01618e-05
4.89748e-08
2.50015e-07
-7.99289e-06
1.67698e-07
4.60397e-07
-1.78973e-05
3.60065e-07
5.58041e-07
-2.25689e-05
4.51654e-07
6.26917e-07
-2.43416e-05
4.84941e-07
6.83273e-07
-2.48993e-05
4.96328e-07
6.91794e-07
-2.48781e-05
4.9952e-07
6.29395e-07
-2.44763e-05
4.94198e-07
4.98312e-07
-2.375e-05
4.77677e-07
3.11459e-07
-2.27467e-05
4.48613e-07
9.79444e-08
-2.15213e-05
4.076e-07
-1.0393e-07
-2.01432e-05
3.57626e-07
-2.59475e-07
-1.86859e-05
3.03059e-07
-3.49087e-07
-1.72113e-05
2.48877e-07
-3.68739e-07
-1.57591e-05
1.99512e-07
-3.19899e-07
-1.43457e-05
1.58127e-07
-2.0045e-07
-1.2966e-05
1.26561e-07
-3.23046e-09
-1.1597e-05
1.05775e-07
2.79794e-07
-1.02014e-05
9.59985e-08
6.52936e-07
-8.73233e-06
9.66025e-08
1.11425e-06
-7.13715e-06
1.05821e-07
1.6569e-06
-5.36333e-06
1.20129e-07
2.26447e-06
-3.38224e-06
1.3294e-07
2.85432e-06
-1.257e-06
1.34472e-07
3.14465e-06
7.20945e-07
1.17161e-07
3.30085e-06
2.53798e-06
8.02519e-08
3.24729e-06
4.33317e-06
3.17379e-08
3.01175e-06
6.03984e-06
-1.92159e-08
2.64034e-06
7.7918e-06
-6.02917e-08
2.17263e-06
9.78777e-06
-8.5924e-08
1.64084e-06
1.21873e-05
-9.16167e-08
1.10221e-06
1.48892e-05
-7.42058e-08
6.48154e-07
1.71829e-05
-3.68491e-08
2.77855e-07
1.8091e-05
7.29825e-09
1.7578e-09
1.72618e-05
4.54402e-08
1.01291e-05
3.4457e-08
-1.24797e-08
-8.16282e-06
1.82218e-07
-2.24567e-07
-1.80507e-05
3.65285e-07
-5.52496e-07
-2.26921e-05
4.51067e-07
-8.90199e-07
-2.44905e-05
4.86596e-07
-1.19086e-06
-2.50958e-05
4.97093e-07
-1.45735e-06
-2.51096e-05
4.97936e-07
-1.70818e-06
-2.47166e-05
4.91034e-07
-1.93322e-06
-2.39989e-05
4.73867e-07
-2.11127e-06
-2.30138e-05
4.45079e-07
-2.21791e-06
-2.18203e-05
4.05539e-07
-2.23914e-06
-2.048e-05
3.57925e-07
-2.1784e-06
-1.90527e-05
3.05952e-07
-2.05228e-06
-1.75914e-05
2.53848e-07
-1.8799e-06
-1.61372e-05
2.0559e-07
-1.67433e-06
-1.47155e-05
1.64187e-07
-1.43988e-06
-1.3332e-05
1.31509e-07
-1.17213e-06
-1.19732e-05
1.08345e-07
-8.59461e-07
-1.0609e-05
9.47888e-08
-4.86831e-07
-9.19556e-06
9.04671e-08
-3.85759e-08
-7.68001e-06
9.44604e-08
4.98486e-07
-6.00527e-06
1.04706e-07
1.1241e-06
-4.12564e-06
1.17583e-07
1.77773e-06
-2.03696e-06
1.26109e-07
2.21743e-06
1.58717e-07
1.22304e-07
2.53087e-06
2.12257e-06
1.01759e-07
2.62975e-06
4.17057e-06
6.35292e-08