/*--------------------------------*- C++ -*----------------------------------*\
| =========                 |                                                 |
| \\      /  F ield         | OpenFOAM: The Open Source CFD Toolbox           |
|  \\    /   O peration     | Version:  2.0.x                                 |
|   \\  /    A nd           | Web:      www.OpenFOAM.org                      |
|    \\/     M anipulation  |                                                 |
\*---------------------------------------------------------------------------*/
FoamFile
{
    version     2.0;
    format      ascii;
    class       volScalarField;
    location    "750";
    object      T;
}
// * * * * * * * * * * * * * * * * * * * * * * * * * * * * * * * * * * * * * //

dimensions      [0 0 0 1 0 0 0];

internalField   nonuniform List<scalar> 
78750
(
288.902
289.817
290.14
290.212
290.223
290.23
290.259
290.311
290.38
290.447
290.51
290.57
290.625
290.673
290.718
290.761
290.801
290.84
290.877
290.912
290.945
290.976
291.005
291.031
291.055
291.077
291.095
291.11
291.118
291.124
291.13
291.145
291.325
293.087
300.588
288.647
289.337
289.609
289.67
289.643
289.694
289.851
290.027
290.176
290.306
290.423
290.529
290.63
290.728
290.823
290.912
290.996
291.074
291.146
291.212
291.273
291.331
291.382
291.426
291.464
291.496
291.52
291.536
291.54
291.534
291.518
291.536
291.869
294.1
301.138
288.344
288.684
288.923
289.116
289.336
289.577
289.831
290.073
290.282
290.458
290.61
290.746
290.869
290.981
291.081
291.17
291.25
291.323
291.389
291.45
291.504
291.552
291.595
291.634
291.667
291.695
291.715
291.728
291.731
291.732
291.751
291.948
293.024
295.781
301.903
288.399
288.853
289.26
289.656
290.022
290.325
290.541
290.699
290.83
290.944
291.042
291.128
291.204
291.274
291.339
291.402
291.463
291.522
291.578
291.63
291.68
291.726
291.768
291.806
291.839
291.866
291.886
291.899
291.908
291.929
292.024
292.482
294.109
297.072
302.509
288.437
288.992
289.49
289.901
290.207
290.431
290.606
290.753
290.879
290.991
291.091
291.187
291.278
291.365
291.447
291.522
291.593
291.658
291.719
291.775
291.827
291.873
291.915
291.951
291.982
292.007
292.028
292.047
292.071
292.13
292.323
293.028
295.002
297.997
302.99
288.52
289.228
289.825
290.273
290.582
290.8
290.967
291.105
291.225
291.332
291.427
291.511
291.584
291.65
291.709
291.765
291.816
291.865
291.909
291.951
291.989
292.024
292.056
292.084
292.11
292.133
292.155
292.183
292.229
292.333
292.63
293.534
295.679
298.704
303.49
288.581
289.39
290.03
290.467
290.755
290.962
291.127
291.269
291.394
291.505
291.6
291.68
291.75
291.811
291.866
291.916
291.964
292.009
292.05
292.088
292.123
292.155
292.185
292.212
292.238
292.264
292.294
292.337
292.41
292.568
292.983
294.06
296.282
299.292
303.911
288.647
289.566
290.268
290.722
291.013
291.228
291.412
291.576
291.717
291.83
291.915
291.979
292.027
292.065
292.099
292.13
292.16
292.189
292.217
292.243
292.269
292.293
292.318
292.342
292.367
292.396
292.434
292.49
292.585
292.789
293.294
294.492
296.744
299.745
304.248
288.704
289.7
290.422
290.872
291.168
291.399
291.601
291.779
291.929
292.043
292.119
292.166
292.195
292.218
292.238
292.259
292.281
292.304
292.329
292.353
292.378
292.403
292.429
292.456
292.486
292.524
292.575
292.649
292.775
293.039
293.642
294.942
297.181
300.142
304.534
288.741
289.786
290.514
290.951
291.254
291.511
291.749
291.969
292.148
292.267
292.336
292.371
292.388
292.399
292.408
292.419
292.432
292.448
292.466
292.486
292.508
292.531
292.557
292.587
292.622
292.666
292.726
292.814
292.967
293.277
293.947
295.314
297.53
300.445
304.735
288.756
289.799
290.519
290.954
291.256
291.515
291.755
291.977
292.17
292.321
292.416
292.464
292.489
292.503
292.513
292.523
292.536
292.551
292.57
292.591
292.615
292.641
292.672
292.707
292.75
292.805
292.878
292.986
293.173
293.536
294.279
295.703
297.875
300.721
304.911
288.758
289.801
290.518
290.952
291.255
291.514
291.754
291.976
292.17
292.332
292.458
292.548
292.595
292.619
292.633
292.644
292.655
292.669
292.686
292.707
292.731
292.76
292.793
292.833
292.882
292.944
293.027
293.153
293.369
293.773
294.57
296.034
298.161
300.934
305.035
288.745
289.761
290.463
290.898
291.207
291.472
291.714
291.938
292.14
292.314
292.454
292.563
292.645
292.696
292.722
292.74
292.755
292.771
292.79
292.812
292.839
292.872
292.91
292.956
293.012
293.083
293.179
293.326
293.572
294.022
294.871
296.366
298.434
301.123
305.142
288.712
289.669
290.342
290.769
291.077
291.341
291.585
291.816
292.03
292.225
292.394
292.535
292.644
292.728
292.791
292.83
292.853
292.873
292.894
292.918
292.947
292.982
293.024
293.075
293.136
293.215
293.323
293.489
293.762
294.249
295.142
296.658
298.667
301.27
305.22
288.695
289.618
290.257
290.663
290.956
291.207
291.439
291.661
291.874
292.075
292.262
292.431
292.578
292.7
292.795
292.867
292.924
292.963
292.992
293.021
293.053
293.091
293.137
293.192
293.26
293.346
293.467
293.652
293.952
294.477
295.41
296.941
298.883
301.396
305.285
288.689
289.598
290.217
290.605
290.877
291.106
291.317
291.519
291.713
291.901
292.084
292.259
292.426
292.581
292.719
292.836
292.929
293.003
293.062
293.109
293.15
293.193
293.243
293.303
293.375
293.47
293.603
293.805
294.13
294.688
295.657
297.197
299.072
301.494
305.332
288.675
289.563
290.178
290.561
290.825
291.041
291.234
291.414
291.584
291.748
291.908
292.068
292.231
292.394
292.55
292.701
292.841
292.963
293.065
293.148
293.218
293.279
293.339
293.405
293.484
293.587
293.733
293.951
294.301
294.893
295.896
297.442
299.25
301.582
305.373
288.652
289.513
290.129
290.527
290.801
291.02
291.214
291.391
291.555
291.708
291.851
291.984
292.11
292.234
292.369
292.513
292.666
292.819
292.966
293.1
293.217
293.317
293.404
293.486
293.576
293.69
293.848
294.081
294.452
295.073
296.107
297.656
299.402
301.652
305.402
288.643
289.502
290.125
290.526
290.801
291.022
291.217
291.396
291.562
291.716
291.859
291.989
292.11
292.222
292.33
292.436
292.545
292.669
292.811
292.966
293.125
293.278
293.412
293.528
293.642
293.775
293.948
294.198
294.592
295.241
296.302
297.848
299.537
301.715
305.429
288.641
289.506
290.147
290.563
290.847
291.076
291.279
291.467
291.642
291.803
291.948
292.074
292.183
292.279
292.367
292.454
292.546
292.644
292.752
292.875
293.019
293.186
293.36
293.519
293.67
293.833
294.03
294.302
294.72
295.398
296.485
298.026
299.663
301.777
305.457
288.655
289.552
290.223
290.66
290.961
291.207
291.429
291.634
291.826
291.999
292.147
292.268
292.364
292.439
292.501
292.56
292.623
292.694
292.779
292.88
293.002
293.15
293.318
293.494
293.676
293.873
294.101
294.403
294.853
295.566
296.68
298.21
299.796
301.853
305.496
288.669
289.578
290.252
290.698
291.013
291.274
291.513
291.738
291.949
292.144
292.317
292.456
292.558
292.627
292.676
292.719
292.762
292.812
292.874
292.953
293.052
293.178
293.328
293.5
293.693
293.913
294.172
294.506
294.992
295.742
296.882
298.396
299.932
301.936
305.54
288.671
289.578
290.251
290.697
291.013
291.275
291.515
291.74
291.952
292.147
292.323
292.476
292.606
292.714
292.795
292.852
292.897
292.943
292.997
293.063
293.146
293.251
293.383
293.543
293.735
293.964
294.248
294.617
295.14
295.928
297.089
298.579
300.068
302.027
305.583
288.665
289.554
290.21
290.655
290.976
291.242
291.484
291.711
291.923
292.12
292.299
292.458
292.596
292.713
292.814
292.901
292.978
293.042
293.103
293.167
293.244
293.34
293.459
293.608
293.792
294.026
294.325
294.722
295.28
296.101
297.279
298.74
300.188
302.109
305.62
288.636
289.468
290.086
290.517
290.836
291.104
291.346
291.572
291.784
291.984
292.173
292.349
292.51
292.654
292.78
292.889
292.983
293.07
293.152
293.235
293.321
293.417
293.533
293.674
293.853
294.089
294.4
294.819
295.408
296.26
297.449
298.878
300.291
302.184
305.649
288.599
289.366
289.938
290.341
290.641
290.893
291.122
291.336
291.542
291.74
291.933
292.121
292.303
292.477
292.64
292.789
292.921
293.037
293.141
293.239
293.337
293.444
293.567
293.716
293.902
294.141
294.463
294.904
295.52
296.4
297.598
298.997
300.38
302.252
305.673
288.568
289.286
289.827
290.208
290.483
290.708
290.912
291.104
291.29
291.472
291.653
291.833
292.016
292.202
292.388
292.568
292.74
292.9
293.046
293.177
293.299
293.42
293.552
293.709
293.905
294.155
294.492
294.962
295.611
296.515
297.722
299.096
300.456
302.311
305.689
288.545
289.242
289.791
290.18
290.451
290.665
290.854
291.03
291.2
291.365
291.528
291.687
291.843
291.997
292.154
292.321
292.495
292.673
292.852
293.021
293.178
293.326
293.478
293.65
293.857
294.121
294.475
294.96
295.64
296.583
297.805
299.164
300.51
302.352
305.697
288.539
289.238
289.792
290.186
290.461
290.675
290.863
291.039
291.21
291.376
291.539
291.697
291.851
291.999
292.141
292.28
292.42
292.562
292.708
292.863
293.026
293.19
293.361
293.551
293.772
294.045
294.416
294.935
295.634
296.61
297.853
299.209
300.548
302.385
305.706
288.546
289.276
289.866
290.282
290.566
290.785
290.979
291.163
291.343
291.523
291.7
291.867
292.019
292.152
292.269
292.378
292.484
292.595
292.713
292.84
292.976
293.121
293.281
293.467
293.691
293.968
294.348
294.889
295.634
296.631
297.892
299.251
300.589
302.426
305.726
288.586
289.408
290.069
290.519
290.82
291.056
291.271
291.482
291.695
291.909
292.111
292.288
292.43
292.535
292.611
292.67
292.726
292.788
292.861
292.945
293.044
293.16
293.299
293.466
293.667
293.927
294.3
294.846
295.615
296.645
297.929
299.288
300.628
302.474
305.756
288.657
289.604
290.338
290.821
291.15
291.423
291.683
291.944
292.207
292.461
292.691
292.871
292.987
293.045
293.066
293.073
293.081
293.099
293.134
293.186
293.254
293.342
293.451
293.585
293.754
293.993
294.355
294.897
295.674
296.733
298.031
299.38
300.712
302.561
305.812
288.75
289.817
290.585
291.072
291.424
291.737
292.043
292.352
292.658
292.944
293.182
293.346
293.43
293.447
293.439
293.423
293.414
293.418
293.437
293.473
293.526
293.595
293.684
293.798
293.952
294.176
294.521
295.056
295.841
296.908
298.202
299.511
300.829
302.697
305.894
288.805
289.898
290.65
291.127
291.481
291.802
292.12
292.435
292.732
292.998
293.22
293.395
293.525
293.62
293.662
293.676
293.679
293.692
293.714
293.749
293.799
293.865
293.95
294.06
294.214
294.439
294.783
295.312
296.098
297.163
298.429
299.68
300.975
302.851
305.973
288.807
289.895
290.632
291.094
291.443
291.763
292.069
292.358
292.63
292.887
293.12
293.324
293.492
293.625
293.731
293.815
293.883
293.925
293.959
293.998
294.052
294.121
294.208
294.322
294.481
294.714
295.063
295.595
296.378
297.427
298.651
299.836
301.1
302.982
306.019
288.766
289.774
290.453
290.89
291.215
291.493
291.747
291.991
292.239
292.492
292.748
292.999
293.237
293.453
293.639
293.793
293.917
294.022
294.115
294.195
294.267
294.341
294.433
294.553
294.718
294.955
295.305
295.835
296.609
297.642
298.828
299.958
301.187
303.055
306.036
288.68
289.566
290.194
290.607
290.901
291.146
291.371
291.59
291.809
292.031
292.262
292.505
292.762
293.019
293.273
293.516
293.74
293.936
294.102
294.244
294.371
294.494
294.614
294.751
294.932
295.183
295.546
296.082
296.852
297.864
299.002
300.076
301.269
303.122
306.051
288.653
289.515
290.146
290.563
290.859
291.103
291.323
291.528
291.721
291.903
292.076
292.243
292.413
292.608
292.827
293.07
293.331
293.593
293.851
294.092
294.309
294.502
294.682
294.866
295.077
295.352
295.733
296.276
297.037
298.025
299.124
300.161
301.324
303.152
306.051
288.649
289.505
290.133
290.552
290.85
291.094
291.315
291.52
291.713
291.895
292.068
292.233
292.393
292.547
292.696
292.847
293.019
293.232
293.483
293.758
294.044
294.331
294.609
294.877
295.15
295.469
295.882
296.445
297.211
298.18
299.24
300.242
301.371
303.155
306.044
288.627
289.462
290.096
290.529
290.832
291.078
291.298
291.504
291.699
291.885
292.062
292.23
292.391
292.545
292.692
292.837
292.981
293.129
293.289
293.49
293.746
294.049
294.391
294.752
295.108
295.48
295.935
296.522
297.295
298.252
299.29
300.277
301.39
303.154
306.032
288.622
289.458
290.095
290.53
290.834
291.08
291.3
291.506
291.702
291.89
292.071
292.242
292.405
292.56
292.706
292.847
292.987
293.129
293.278
293.442
293.629
293.87
294.188
294.567
294.981
295.43
295.925
296.528
297.303
298.258
299.294
300.284
301.392
303.128
306.016
288.623
289.466
290.118
290.564
290.875
291.123
291.345
291.554
291.757
291.953
292.141
292.319
292.486
292.641
292.784
292.918
293.047
293.174
293.307
293.454
293.626
293.835
294.1
294.441
294.853
295.332
295.876
296.516
297.304
298.259
299.296
300.291
301.394
303.117
306.011
288.64
289.516
290.191
290.646
290.963
291.218
291.446
291.661
291.869
292.072
292.266
292.451
292.623
292.781
292.924
293.053
293.172
293.287
293.404
293.531
293.677
293.859
294.095
294.398
294.784
295.269
295.843
296.514
297.322
298.282
299.319
300.315
301.415
303.123
306.014
288.656
289.559
290.25
290.713
291.036
291.297
291.531
291.752
291.965
292.173
292.374
292.567
292.749
292.915
293.065
293.198
293.317
293.429
293.537
293.651
293.779
293.935
294.136
294.403
294.757
295.221
295.802
296.498
297.325
298.294
299.333
300.328
301.426
303.131
306.019
288.669
289.594
290.296
290.762
291.087
291.351
291.59
291.816
292.035
292.25
292.46
292.663
292.855
293.032
293.192
293.333
293.458
293.573
293.682
293.792
293.911
294.051
294.228
294.466
294.791
295.23
295.804
296.503
297.342
298.323
299.368
300.362
301.457
303.159
306.035
288.693
289.654
290.368
290.833
291.158
291.425
291.667
291.898
292.124
292.347
292.566
292.778
292.977
293.161
293.328
293.475
293.606
293.725
293.838
293.949
294.066
294.199
294.364
294.587
294.894
295.315
295.876
296.591
297.449
298.436
299.469
300.443
301.529
303.232
306.07
288.711
289.693
290.415
290.884
291.212
291.484
291.732
291.968
292.198
292.421
292.64
292.854
293.065
293.265
293.446
293.605
293.745
293.872
293.991
294.107
294.226
294.357
294.514
294.721
295.009
295.414
295.971
296.687
297.551
298.536
299.557
300.517
301.596
303.296
306.099
288.717
289.706
290.427
290.893
291.221
291.494
291.743
291.978
292.205
292.426
292.643
292.857
293.068
293.274
293.473
293.661
293.829
293.976
294.11
294.238
294.364
294.498
294.652
294.848
295.115
295.492
296.025
296.729
297.593
298.579
299.595
300.542
301.618
303.327
306.113
288.724
289.722
290.444
290.906
291.231
291.501
291.749
291.983
292.208
292.428
292.644
292.856
293.065
293.271
293.472
293.665
293.848
294.017
294.171
294.315
294.456
294.599
294.757
294.952
295.212
295.579
296.104
296.801
297.663
298.647
299.647
300.583
301.651
303.356
306.117
288.725
289.727
290.456
290.923
291.25
291.522
291.769
292.003
292.225
292.441
292.651
292.858
293.063
293.265
293.466
293.662
293.85
294.028
294.195
294.353
294.504
294.657
294.82
295.011
295.257
295.597
296.092
296.774
297.637
298.631
299.648
300.587
301.652
303.352
306.112
288.728
289.739
290.475
290.947
291.279
291.556
291.809
292.046
292.27
292.483
292.687
292.885
293.081
293.277
293.472
293.665
293.855
294.038
294.212
294.379
294.539
294.701
294.873
295.07
295.309
295.627
296.091
296.761
297.626
298.628
299.649
300.589
301.653
303.351
306.111
288.739
289.768
290.515
290.993
291.331
291.616
291.877
292.121
292.349
292.562
292.761
292.952
293.139
293.324
293.511
293.698
293.883
294.065
294.241
294.411
294.575
294.742
294.924
295.131
295.379
295.698
296.141
296.777
297.631
298.646
299.684
300.624
301.685
303.384
306.124
288.743
289.781
290.535
291.02
291.368
291.663
291.937
292.194
292.431
292.649
292.849
293.035
293.215
293.392
293.571
293.751
293.931
294.11
294.286
294.456
294.624
294.796
294.984
295.201
295.464
295.801
296.259
296.898
297.754
298.772
299.798
300.719
301.77
303.467
306.162
288.747
289.789
290.547
291.033
291.385
291.689
291.975
292.246
292.497
292.724
292.926
293.11
293.285
293.457
293.63
293.805
293.983
294.16
294.336
294.509
294.68
294.856
295.053
295.288
295.581
295.954
296.44
297.092
297.946
298.948
299.935
300.825
301.867
303.561
306.205
288.756
289.814
290.579
291.069
291.424
291.735
292.032
292.316
292.579
292.812
293.014
293.193
293.359
293.521
293.685
293.854
294.027
294.203
294.38
294.555
294.729
294.909
295.112
295.368
295.703
296.134
296.675
297.358
298.206
299.171
300.108
300.966
301.993
303.672
306.252
288.764
289.833
290.604
291.099
291.461
291.782
292.093
292.395
292.674
292.918
293.125
293.301
293.459
293.61
293.761
293.917
294.08
294.248
294.419
294.592
294.765
294.945
295.149
295.407
295.758
296.228
296.823
297.546
298.399
299.331
300.228
301.061
302.072
303.728
306.266
288.77
289.845
290.616
291.108
291.472
291.799
292.121
292.438
292.736
293
293.222
293.408
293.569
293.718
293.863
294.01
294.162
294.32
294.482
294.647
294.813
294.985
295.174
295.411
295.737
296.196
296.805
297.548
298.405
299.33
300.22
301.049
302.054
303.706
306.256
288.775
289.857
290.626
291.115
291.476
291.802
292.125
292.447
292.755
293.034
293.272
293.473
293.647
293.804
293.954
294.102
294.252
294.405
294.561
294.72
294.88
295.044
295.22
295.429
295.71
296.107
296.666
297.398
298.271
299.213
300.128
300.976
301.983
303.627
306.217
288.778
289.865
290.635
291.124
291.484
291.81
292.132
292.454
292.769
293.058
293.308
293.52
293.703
293.868
294.023
294.175
294.327
294.482
294.638
294.796
294.955
295.117
295.287
295.482
295.732
296.092
296.605
297.298
298.163
299.138
300.093
300.961
301.972
303.611
306.209
288.78
289.867
290.636
291.124
291.485
291.81
292.132
292.454
292.77
293.069
293.339
293.568
293.762
293.933
294.091
294.245
294.399
294.555
294.713
294.873
295.035
295.2
295.375
295.573
295.817
296.14
296.609
297.291
298.156
299.134
300.093
300.963
301.973
303.612
306.211
288.781
289.868
290.634
291.12
291.479
291.804
292.123
292.444
292.761
293.065
293.344
293.594
293.806
293.99
294.155
294.312
294.467
294.623
294.782
294.943
295.107
295.276
295.46
295.674
295.939
296.286
296.749
297.373
298.203
299.177
300.143
301.014
302.024
303.667
306.242
288.78
289.863
290.625
291.108
291.464
291.784
292.098
292.413
292.729
293.037
293.33
293.594
293.828
294.03
294.207
294.371
294.529
294.686
294.844
295.004
295.167
295.337
295.524
295.746
296.03
296.413
296.927
297.593
298.419
299.361
300.288
301.132
302.128
303.753
306.274
288.777
289.856
290.615
291.095
291.448
291.764
292.071
292.377
292.686
292.994
293.295
293.576
293.829
294.052
294.244
294.418
294.582
294.742
294.902
295.063
295.223
295.389
295.569
295.78
296.05
296.42
296.943
297.633
298.473
299.405
300.317
301.153
302.142
303.754
306.271
288.773
289.847
290.601
291.078
291.427
291.736
292.034
292.33
292.629
292.931
293.235
293.532
293.809
294.055
294.273
294.462
294.634
294.8
294.963
295.126
295.286
295.449
295.62
295.811
296.045
296.357
296.808
297.461
298.301
299.246
300.171
301.014
302
303.618
306.209
288.769
289.837
290.584
291.054
291.396
291.697
291.983
292.266
292.551
292.842
293.142
293.448
293.751
294.033
294.282
294.502
294.693
294.869
295.04
295.207
295.373
295.541
295.712
295.89
296.088
296.346
296.709
297.233
297.975
298.897
299.873
300.785
301.801
303.413
306.117
288.767
289.833
290.577
291.042
291.377
291.667
291.941
292.209
292.477
292.752
293.039
293.339
293.651
293.964
294.256
294.513
294.739
294.938
295.125
295.307
295.489
295.674
295.86
296.045
296.234
296.443
296.731
297.201
297.885
298.792
299.804
300.75
301.778
303.389
306.108
288.767
289.832
290.575
291.04
291.373
291.657
291.92
292.173
292.423
292.676
292.941
293.223
293.527
293.849
294.177
294.485
294.754
294.991
295.206
295.411
295.619
295.834
296.054
296.275
296.494
296.721
296.982
297.344
297.937
298.808
299.814
300.755
301.784
303.409
306.126
288.765
289.827
290.568
291.035
291.367
291.645
291.896
292.134
292.368
292.603
292.846
293.104
293.385
293.696
294.036
294.386
294.714
295.002
295.256
295.495
295.737
295.992
296.262
296.542
296.832
297.136
297.474
297.898
298.488
299.277
300.16
301.004
301.992
303.608
306.216
288.763
289.823
290.568
291.035
291.367
291.645
291.895
292.128
292.347
292.558
292.774
293.004
293.253
293.533
293.853
294.21
294.584
294.936
295.248
295.529
295.805
296.096
296.41
296.752
297.119
297.517
297.958
298.473
299.1
299.837
300.607
301.361
302.292
303.848
306.308
288.762
289.823
290.569
291.038
291.37
291.647
291.896
292.128
292.346
292.555
292.758
292.959
293.175
293.418
293.698
294.025
294.398
294.792
295.168
295.505
295.816
296.132
296.477
296.861
297.287
297.757
298.276
298.854
299.5
300.198
300.896
301.599
302.499
304.014
306.37
288.761
289.824
290.578
291.054
291.388
291.664
291.91
292.138
292.352
292.558
292.759
292.956
293.154
293.36
293.595
293.877
294.213
294.599
295.009
295.404
295.767
296.113
296.475
296.878
297.335
297.846
298.41
299.023
299.677
300.348
301.013
301.694
302.575
304.06
306.383
288.76
289.827
290.595
291.083
291.424
291.704
291.952
292.177
292.387
292.584
292.775
292.963
293.154
293.35
293.556
293.785
294.065
294.405
294.799
295.213
295.61
295.99
296.377
296.804
297.288
297.83
298.415
299.043
299.703
300.369
301.026
301.702
302.58
304.059
306.376
288.761
289.835
290.615
291.112
291.462
291.75
292.005
292.236
292.449
292.646
292.831
293.008
293.184
293.364
293.556
293.763
293.994
294.272
294.619
295.014
295.42
295.816
296.21
296.628
297.104
297.657
298.286
298.961
299.653
300.338
301.004
301.687
302.563
304.029
306.356
288.764
289.848
290.637
291.142
291.498
291.792
292.054
292.293
292.514
292.718
292.907
293.085
293.256
293.424
293.595
293.78
293.989
294.232
294.522
294.872
295.26
295.662
296.061
296.466
296.913
297.434
298.042
298.722
299.439
300.156
300.855
301.566
302.469
303.96
306.328
288.77
289.869
290.671
291.184
291.545
291.845
292.112
292.357
292.584
292.794
292.989
293.172
293.345
293.511
293.676
293.846
294.03
294.24
294.493
294.795
295.148
295.54
295.943
296.345
296.768
297.248
297.811
298.461
299.174
299.908
300.635
301.371
302.295
303.816
306.271
288.778
289.894
290.708
291.228
291.596
291.902
292.177
292.43
292.664
292.881
293.083
293.27
293.445
293.613
293.776
293.939
294.11
294.3
294.521
294.786
295.104
295.477
295.88
296.29
296.71
297.167
297.692
298.309
299.011
299.756
300.498
301.242
302.167
303.703
306.225
288.788
289.921
290.744
291.268
291.64
291.952
292.234
292.496
292.74
292.967
293.177
293.372
293.553
293.723
293.885
294.045
294.21
294.388
294.593
294.839
295.137
295.497
295.897
296.306
296.719
297.165
297.684
298.293
298.992
299.738
300.48
301.22
302.144
303.686
306.218
288.799
289.946
290.775
291.301
291.676
291.992
292.28
292.548
292.801
293.037
293.257
293.461
293.651
293.827
293.993
294.152
294.311
294.48
294.67
294.899
295.182
295.533
295.939
296.367
296.795
297.234
297.725
298.309
298.995
299.739
300.481
301.222
302.144
303.687
306.22
288.807
289.965
290.799
291.328
291.706
292.027
292.32
292.594
292.853
293.096
293.324
293.537
293.737
293.922
294.094
294.256
294.414
294.576
294.754
294.964
295.228
295.565
295.971
296.416
296.877
297.348
297.857
298.435
299.093
299.804
300.52
301.241
302.154
303.698
306.228
288.813
289.98
290.816
291.347
291.729
292.055
292.354
292.634
292.898
293.146
293.381
293.602
293.81
294.004
294.183
294.349
294.507
294.664
294.829
295.017
295.252
295.561
295.959
296.418
296.899
297.402
297.941
298.536
299.195
299.893
300.59
301.298
302.199
303.727
306.233
288.815
289.987
290.827
291.36
291.745
292.076
292.38
292.665
292.934
293.189
293.431
293.661
293.878
294.081
294.268
294.439
294.598
294.751
294.906
295.074
295.276
295.539
295.889
296.337
296.853
297.393
297.948
298.555
299.217
299.909
300.599
301.303
302.203
303.727
306.232
288.818
289.996
290.839
291.374
291.761
292.096
292.405
292.694
292.966
293.226
293.475
293.714
293.942
294.155
294.351
294.529
294.691
294.844
294.992
295.146
295.321
295.54
295.835
296.221
296.704
297.257
297.861
298.496
299.168
299.863
300.556
301.263
302.165
303.691
306.211
288.82
290.002
290.847
291.383
291.773
292.112
292.425
292.717
292.993
293.257
293.513
293.763
294.004
294.232
294.442
294.631
294.802
294.959
295.106
295.253
295.411
295.6
295.845
296.181
296.61
297.131
297.726
298.379
299.08
299.802
300.515
301.233
302.142
303.676
306.204
288.823
290.013
290.857
291.393
291.784
292.126
292.441
292.736
293.013
293.279
293.539
293.796
294.049
294.293
294.52
294.726
294.912
295.08
295.235
295.386
295.544
295.72
295.934
296.214
296.604
297.098
297.686
298.349
299.064
299.796
300.513
301.232
302.142
303.677
306.206
288.828
290.026
290.873
291.409
291.804
292.149
292.468
292.764
293.042
293.309
293.57
293.831
294.092
294.348
294.589
294.811
295.012
295.194
295.361
295.523
295.687
295.867
296.077
296.338
296.678
297.129
297.696
298.359
299.084
299.824
300.541
301.259
302.174
303.722
306.23
288.834
290.041
290.887
291.422
291.818
292.167
292.489
292.789
293.069
293.337
293.601
293.868
294.138
294.408
294.666
294.904
295.119
295.314
295.495
295.669
295.844
296.035
296.256
296.526
296.87
297.314
297.87
298.526
299.244
299.967
300.663
301.365
302.275
303.817
306.273
288.84
290.052
290.896
291.429
291.826
292.178
292.502
292.802
293.082
293.348
293.611
293.881
294.16
294.443
294.718
294.975
295.209
295.422
295.618
295.804
295.991
296.194
296.43
296.717
297.078
297.533
298.092
298.742
299.44
300.136
300.805
301.493
302.396
303.923
306.318
288.846
290.066
290.908
291.44
291.839
292.194
292.521
292.822
293.1
293.363
293.622
293.887
294.168
294.46
294.754
295.032
295.287
295.518
295.728
295.925
296.124
296.34
296.589
296.893
297.27
297.738
298.302
298.943
299.621
300.29
300.937
301.612
302.511
304.025
306.361
288.85
290.072
290.913
291.445
291.846
292.204
292.534
292.836
293.113
293.371
293.624
293.884
294.162
294.46
294.765
295.061
295.338
295.589
295.815
296.026
296.237
296.465
296.727
297.043
297.434
297.912
298.477
299.106
299.76
300.4
301.026
301.693
302.59
304.096
306.39
288.851
290.076
290.916
291.447
291.85
292.211
292.544
292.848
293.124
293.379
293.625
293.876
294.147
294.441
294.753
295.065
295.361
295.631
295.873
296.098
296.32
296.555
296.824
297.146
297.541
298.019
298.576
299.19
299.815
300.43
301.042
301.707
302.607
304.113
306.396
288.854
290.084
290.923
291.453
291.858
292.222
292.557
292.862
293.137
293.39
293.631
293.876
294.138
294.428
294.741
295.062
295.373
295.66
295.917
296.154
296.383
296.619
296.884
297.199
297.585
298.052
298.595
299.189
299.803
300.411
301.02
301.681
302.581
304.09
306.386
288.857
290.092
290.931
291.462
291.869
292.237
292.575
292.881
293.155
293.404
293.639
293.876
294.131
294.415
294.73
295.059
295.384
295.688
295.964
296.215
296.451
296.687
296.942
297.24
297.606
298.058
298.596
299.189
299.798
300.405
301.011
301.669
302.565
304.072
306.376
288.862
290.105
290.942
291.473
291.882
292.254
292.595
292.903
293.177
293.423
293.654
293.884
294.132
294.412
294.727
295.065
295.406
295.73
296.028
296.298
296.548
296.789
297.04
297.322
297.662
298.084
298.6
299.189
299.798
300.405
301.012
301.67
302.565
304.073
306.377
288.868
290.119
290.955
291.485
291.896
292.27
292.614
292.923
293.197
293.442
293.668
293.891
294.131
294.406
294.722
295.07
295.428
295.777
296.1
296.395
296.667
296.925
297.184
297.464
297.791
298.189
298.667
299.217
299.809
300.409
301.012
301.67
302.566
304.074
306.38
288.875
290.135
290.971
291.5
291.913
292.29
292.637
292.947
293.22
293.462
293.682
293.898
294.127
294.392
294.704
295.058
295.433
295.804
296.156
296.481
296.781
297.065
297.346
297.641
297.972
298.361
298.819
299.339
299.896
300.463
301.047
301.695
302.585
304.091
306.388
288.882
290.15
290.984
291.513
291.928
292.308
292.657
292.969
293.241
293.48
293.696
293.903
294.12
294.37
294.671
295.023
295.407
295.798
296.174
296.527
296.857
297.172
297.481
297.799
298.145
298.535
298.981
299.48
300.012
300.559
301.124
301.755
302.63
304.117
306.397
288.889
290.164
290.999
291.528
291.944
292.325
292.676
292.989
293.261
293.498
293.708
293.907
294.111
294.342
294.624
294.965
295.352
295.76
296.161
296.537
296.893
297.236
297.575
297.922
298.29
298.694
299.141
299.629
300.143
300.669
301.216
301.832
302.691
304.158
306.41
288.894
290.175
291.012
291.541
291.959
292.341
292.694
293.008
293.28
293.514
293.72
293.91
294.099
294.309
294.564
294.88
295.259
295.681
296.111
296.518
296.896
297.26
297.624
297.998
298.391
298.813
299.268
299.751
300.253
300.769
301.309
301.915
302.761
304.203
306.424
288.897
290.183
291.023
291.554
291.972
292.357
292.711
293.027
293.298
293.53
293.732
293.914
294.09
294.275
294.492
294.763
295.106
295.518
295.965
296.41
296.838
297.244
297.627
298.016
298.424
298.856
299.316
299.8
300.302
300.819
301.357
301.961
302.797
304.22
306.426
288.898
290.188
291.035
291.57
291.989
292.375
292.731
293.046
293.318
293.548
293.746
293.923
294.089
294.256
294.437
294.653
294.93
295.285
295.706
296.16
296.623
297.082
297.535
297.977
298.414
298.854
299.316
299.8
300.304
300.822
301.361
301.963
302.797
304.217
306.421
288.899
290.195
291.052
291.591
292.013
292.402
292.759
293.075
293.345
293.572
293.767
293.939
294.098
294.253
294.413
294.588
294.799
295.069
295.412
295.822
296.276
296.754
297.241
297.731
298.224
298.724
299.227
299.737
300.256
300.782
301.327
301.934
302.763
304.172
306.396
288.901
290.208
291.078
291.624
292.051
292.444
292.803
293.117
293.384
293.608
293.8
293.968
294.122
294.269
294.417
294.572
294.744
294.947
295.204
295.53
295.926
296.378
296.864
297.37
297.891
298.423
298.966
299.517
300.071
300.629
301.201
301.824
302.66
304.078
306.353
288.906
290.232
291.116
291.672
292.107
292.508
292.87
293.182
293.444
293.662
293.848
294.011
294.16
294.303
294.446
294.593
294.748
294.921
295.124
295.376
295.694
296.084
296.536
297.033
297.562
298.117
298.694
299.285
299.88
300.475
301.077
301.721
302.571
304.005
306.321
288.916
290.266
291.165
291.734
292.183
292.596
292.962
293.271
293.524
293.734
293.912
294.068
294.213
294.352
294.491
294.635
294.784
294.944
295.126
295.341
295.604
295.93
296.329
296.795
297.317
297.883
298.482
299.099
299.725
300.35
300.975
301.636
302.503
303.96
306.307
288.93
290.309
291.225
291.809
292.277
292.708
293.081
293.384
293.626
293.824
293.991
294.139
294.277
294.412
294.548
294.69
294.839
294.997
295.17
295.367
295.602
295.891
296.245
296.674
297.176
297.737
298.341
298.972
299.615
300.255
300.892
301.562
302.44
303.917
306.293
288.945
290.356
291.288
291.891
292.386
292.842
293.223
293.519
293.748
293.931
294.086
294.224
294.354
294.483
294.615
294.754
294.9
295.059