/*--------------------------------*- C++ -*----------------------------------*\
| =========                 |                                                 |
| \\      /  F ield         | OpenFOAM: The Open Source CFD Toolbox           |
|  \\    /   O peration     | Version:  2.0.x                                 |
|   \\  /    A nd           | Web:      www.OpenFOAM.org                      |
|    \\/     M anipulation  |                                                 |
\*---------------------------------------------------------------------------*/
FoamFile
{
    version     2.0;
    format      ascii;
    class       volVectorField;
    location    "750";
    object      U;
}
// * * * * * * * * * * * * * * * * * * * * * * * * * * * * * * * * * * * * * //

dimensions      [0 1 -1 0 0 0 0];

internalField   nonuniform List<vector> 
78750
(
(-0.00372613 0.0245507 0.031319)
(-0.0123082 0.0221996 0.047197)
(-0.0237309 0.00687916 0.0476891)
(-0.0320227 -0.0050554 0.0447319)
(-0.0386785 -0.015868 0.043438)
(-0.0403994 -0.0246067 0.0419538)
(-0.038892 -0.0323783 0.0412058)
(-0.0368427 -0.0357361 0.0409917)
(-0.0306258 -0.0422885 0.0396242)
(-0.0243108 -0.0460759 0.038853)
(-0.0168895 -0.0485857 0.0382849)
(-0.00864972 -0.0503519 0.0378487)
(-0.000273567 -0.0512255 0.0375588)
(0.00802831 -0.0514553 0.0372588)
(0.0164774 -0.0510532 0.0367967)
(0.0242679 -0.0501466 0.0363329)
(0.0315892 -0.048918 0.0359492)
(0.0384429 -0.0474039 0.0357406)
(0.0447141 -0.0454726 0.0357191)
(0.0503495 -0.0442994 0.0351951)
(0.0552575 -0.0430877 0.0345283)
(0.0592856 -0.0413955 0.0339905)
(0.0625964 -0.0381471 0.0347216)
(0.0651114 -0.0324879 0.0358714)
(0.0661084 -0.0293103 0.0366886)
(0.0665855 -0.02546 0.0374442)
(0.0658876 -0.0211577 0.0382234)
(0.0641095 -0.0164732 0.039062)
(0.0609203 -0.0113021 0.0401347)
(0.0559012 -0.00541209 0.0412521)
(0.0496784 0.00121936 0.0424164)
(0.0416993 0.00975167 0.0434196)
(0.0317832 0.0168418 0.0458617)
(0.019438 0.0260089 0.0472077)
(0.00619043 0.0305942 0.0317364)
(0.000897792 0.0322255 0.0202068)
(0.00164168 0.0515992 0.0353655)
(-0.000151844 0.0504257 0.0376382)
(-0.00295396 0.0352126 0.0362224)
(-0.00289884 0.00743564 0.0317967)
(-0.00212847 -0.0290542 0.0270785)
(-0.000332106 -0.0568962 0.0234613)
(0.0043042 -0.0779331 0.0205388)
(0.00806974 -0.0919607 0.0183358)
(0.0128883 -0.10134 0.016425)
(0.0178114 -0.107445 0.0147905)
(0.0229056 -0.111816 0.0134105)
(0.0278736 -0.112707 0.0125604)
(0.031836 -0.111658 0.0122341)
(0.0358091 -0.109395 0.011929)
(0.0396831 -0.10552 0.0115712)
(0.0428836 -0.101012 0.0112549)
(0.0457205 -0.0957204 0.0112087)
(0.0480936 -0.0897827 0.0114128)
(0.0499872 -0.0822886 0.012425)
(0.0511775 -0.0737946 0.0140827)
(0.0521603 -0.0647349 0.0163111)
(0.0521141 -0.0570894 0.0174878)
(0.0518885 -0.0491032 0.0187225)
(0.051278 -0.0411361 0.0192781)
(0.0500035 -0.0326019 0.0198909)
(0.048199 -0.0235929 0.020477)
(0.0462517 -0.0136222 0.0211903)
(0.042435 0.0038293 0.0238042)
(0.038565 0.0152309 0.0258008)
(0.0342381 0.0254567 0.0275866)
(0.027878 0.0418962 0.0305121)
(0.0203039 0.0638777 0.0350295)
(0.0107887 0.0849687 0.0369548)
(0.00293809 0.0810152 0.0268211)
(0.000147459 0.000142778 0.0134743)
(0.0031879 0.00827694 0.027776)
(0.0076578 0.00266096 0.0320557)
(0.0140535 -0.0193746 0.0311166)
(0.0208725 -0.0477152 0.0278744)
(0.0271352 -0.0753625 0.0243172)
(0.0320017 -0.0981211 0.0206745)
(0.0357046 -0.114666 0.0173221)
(0.0387001 -0.125412 0.0145047)
(0.0407223 -0.131493 0.0123208)
(0.0424659 -0.133985 0.0105231)
(0.043077 -0.133168 0.00973768)
(0.043817 -0.130148 0.00880311)
(0.0441468 -0.126101 0.008022)
(0.0443268 -0.121278 0.0073928)
(0.0443132 -0.11572 0.00672838)
(0.0440701 -0.109465 0.00621448)
(0.0439273 -0.102552 0.0065138)
(0.0433675 -0.0953445 0.00697907)
(0.0426938 -0.0878275 0.00771035)
(0.0420591 -0.0802138 0.00851055)
(0.041089 -0.073022 0.00891745)
(0.0402343 -0.0651313 0.00960874)
(0.0390458 -0.0564286 0.0106654)
(0.0375378 -0.047104 0.0119516)
(0.0357774 -0.0380117 0.0127196)
(0.0337065 -0.0282261 0.0136012)
(0.0313737 -0.0163852 0.0149617)
(0.0282146 0.000190881 0.0175684)
(0.0259111 0.0109157 0.0191845)
(0.022243 0.0274482 0.0213567)
(0.0184768 0.0507474 0.0247676)
(0.0121542 0.0828065 0.0287359)
(0.0059937 0.104646 0.0296758)
(0.00167922 0.0931964 0.0211827)
(-0.000590681 -0.00774217 0.0102254)
(0.000507871 -0.0321194 0.0168972)
(0.00467085 -0.0611641 0.0161728)
(0.0102961 -0.0906162 0.0126462)
(0.0159426 -0.114902 0.00869715)
(0.0207055 -0.131221 0.00531144)
(0.0244303 -0.139941 0.00287798)
(0.0270594 -0.143475 0.00124091)
(0.0291564 -0.144038 9.6895e-08)
(0.0305173 -0.143108 -0.000722589)
(0.0318774 -0.140619 -0.00153086)
(0.0328194 -0.137808 -0.00244908)
(0.0335124 -0.134519 -0.00334765)
(0.0340631 -0.130317 -0.00404796)
(0.0343639 -0.125342 -0.00451596)
(0.0345538 -0.119468 -0.00437016)
(0.034751 -0.112857 -0.00369728)
(0.0345177 -0.106197 -0.00354251)
(0.0344316 -0.0991195 -0.00333221)
(0.0341289 -0.091653 -0.00317491)
(0.0336708 -0.0836435 -0.00289456)
(0.0330221 -0.0750413 -0.00239279)
(0.0321366 -0.0659139 -0.00164274)
(0.0310541 -0.0561834 -0.000590217)
(0.0297805 -0.0457853 0.000796974)
(0.0283032 -0.0350846 0.00220944)
(0.0265722 -0.0238607 0.00364165)
(0.0246324 -0.0107706 0.00559523)
(0.022064 0.0054962 0.00870506)
(0.0200298 0.0165472 0.0108148)
(0.0168252 0.0348287 0.0142796)
(0.0135691 0.0613198 0.0196061)
(0.00843557 0.0979286 0.0244173)
(0.0038484 0.117281 0.0247467)
(0.00100804 0.0992279 0.017186)
(0.000137367 -0.0114735 0.00512554)
(0.00288175 -0.0475853 0.00742984)
(0.00729523 -0.0830894 0.00692477)
(0.0120078 -0.109915 0.00601505)
(0.0160661 -0.127047 0.00515326)
(0.0191842 -0.137928 0.00424602)
(0.0216558 -0.144521 0.00318232)
(0.0236872 -0.148596 0.00188961)
(0.0254153 -0.150656 0.000247778)
(0.0268228 -0.151035 -0.00176089)
(0.0278317 -0.149385 -0.00310401)
(0.0287762 -0.14494 -0.0043907)
(0.0294753 -0.139152 -0.00520145)
(0.0300123 -0.133062 -0.00568748)
(0.0303169 -0.126854 -0.00625334)
(0.0304746 -0.120467 -0.00688369)
(0.0303883 -0.113816 -0.00764893)
(0.0302115 -0.106576 -0.00828436)
(0.0297821 -0.0988339 -0.00875418)
(0.0291484 -0.0906435 -0.00900057)
(0.0283429 -0.0820963 -0.00900654)
(0.0274002 -0.0732338 -0.00876446)
(0.0263427 -0.0640233 -0.00825778)
(0.0251984 -0.054392 -0.00747392)
(0.0239786 -0.0442815 -0.00640989)
(0.0226597 -0.0337451 -0.00513675)
(0.0212178 -0.0227452 -0.00385298)
(0.0195609 -0.00976663 -0.00193649)
(0.0176012 0.0058836 0.000854278)
(0.0160236 0.0177096 0.00280303)
(0.0135111 0.0383106 0.00614146)
(0.010839 0.0684501 0.012639)
(0.00662738 0.106815 0.0192371)
(0.00296823 0.12369 0.0201222)
(0.000766691 0.101179 0.0136992)
(0.000165716 -0.0284043 0.00381517)
(0.00279065 -0.0842529 0.00627915)
(0.00639835 -0.125712 0.00656051)
(0.00987595 -0.150751 0.00547205)
(0.012882 -0.163276 0.00366705)
(0.0154708 -0.168187 0.00170815)
(0.0179789 -0.169401 -0.000349521)
(0.019908 -0.168039 -0.00180124)
(0.0218195 -0.163886 -0.0033225)
(0.0230664 -0.157996 -0.00466811)
(0.0239896 -0.151995 -0.00607015)
(0.0245313 -0.145892 -0.00761094)
(0.0249357 -0.139712 -0.00938818)
(0.0251319 -0.133304 -0.011407)
(0.0252864 -0.126236 -0.0131433)
(0.0252574 -0.118455 -0.0145693)
(0.0250581 -0.110023 -0.0156326)
(0.0246614 -0.101142 -0.0163197)
(0.0240877 -0.0920775 -0.0166568)
(0.02338 -0.0830663 -0.016708)
(0.0225811 -0.0741333 -0.0165202)
(0.0217176 -0.065217 -0.0161312)
(0.0207995 -0.0561909 -0.0155544)
(0.0198522 -0.0468741 -0.0147751)
(0.0188925 -0.0370856 -0.0137607)
(0.017908 -0.0267351 -0.0125219)
(0.0168465 -0.0154028 -0.0110276)
(0.0155014 -0.00177197 -0.00873114)
(0.0143244 0.0101948 -0.00628287)
(0.0129823 0.0232165 -0.00339264)
(0.0110329 0.0436375 0.00133206)
(0.00859137 0.0765962 0.00778954)
(0.00519246 0.115367 0.0142147)
(0.00209633 0.130369 0.015235)
(0.000303172 0.102428 0.00949236)
(0.000255695 -0.0356292 0.00205699)
(0.00253599 -0.0975749 0.00470112)
(0.00528808 -0.136937 0.00579851)
(0.00764225 -0.157137 0.00532987)
(0.00955877 -0.166624 0.00408881)
(0.01121 -0.170841 0.00252667)
(0.0127337 -0.171776 0.00072416)
(0.0138939 -0.170038 -0.00112012)
(0.0147069 -0.165433 -0.0036463)
(0.0156799 -0.158813 -0.00646864)
(0.0161597 -0.151744 -0.00950749)
(0.0167059 -0.144068 -0.0123042)
(0.0170128 -0.136012 -0.0146845)
(0.0171752 -0.12779 -0.0165749)
(0.0172256 -0.119458 -0.0180009)
(0.0172035 -0.110907 -0.0189867)
(0.0171252 -0.101968 -0.0195403)
(0.0169841 -0.0927156 -0.0196825)
(0.016762 -0.0835755 -0.0195019)
(0.0164613 -0.0747908 -0.0191051)
(0.0160887 -0.0662661 -0.0185559)
(0.0156451 -0.0578678 -0.0179039)
(0.0151333 -0.0494799 -0.01719)
(0.0145554 -0.0409823 -0.0164433)
(0.0139372 -0.0321926 -0.0156788)
(0.0132862 -0.0227287 -0.0148325)
(0.0125759 -0.0118926 -0.0137022)
(0.011801 0.000550547 -0.0121108)
(0.0111682 0.0113039 -0.010616)
(0.0102525 0.0267279 -0.00810458)
(0.00881076 0.0491582 -0.00373125)
(0.00681427 0.0833721 0.00315383)
(0.00411823 0.121185 0.00976284)
(0.00160628 0.13458 0.0113787)
(0.000161272 0.102143 0.00743326)
(0.000288321 -0.0480753 0.00289131)
(0.00236468 -0.121905 0.00790336)
(0.00455659 -0.163241 0.00996234)
(0.00633385 -0.181071 0.00941118)
(0.0077833 -0.187117 0.00781597)
(0.00914555 -0.187191 0.00576707)
(0.010275 -0.183594 0.003695)
(0.0112678 -0.176458 0.00092525)
(0.0119973 -0.167756 -0.00242631)
(0.0122848 -0.158673 -0.00613037)
(0.0124756 -0.148913 -0.00980854)
(0.0124283 -0.139282 -0.0131246)
(0.0123274 -0.130087 -0.0158828)
(0.0122448 -0.121311 -0.0180538)
(0.0122073 -0.112769 -0.0196848)
(0.0122198 -0.104219 -0.0208334)
(0.0122769 -0.0954168 -0.0215322)
(0.01238 -0.0862085 -0.021787)
(0.0124781 -0.0770225 -0.0216843)
(0.0125257 -0.0682085 -0.0213434)
(0.0125192 -0.0596747 -0.0208238)
(0.0124472 -0.051278 -0.0201691)
(0.0123021 -0.042894 -0.0194208)
(0.0120727 -0.0344018 -0.0186156)
(0.0117588 -0.0256258 -0.0177793)
(0.011356 -0.0162737 -0.0168944)
(0.0108494 -0.00599032 -0.0158947)
(0.0103221 0.0052046 -0.0146584)
(0.00979516 0.0154671 -0.0134594)
(0.00890114 0.0314094 -0.0113924)
(0.00762082 0.0552374 -0.00750659)
(0.0057862 0.0903057 -0.000959385)
(0.00344785 0.126641 0.00600236)
(0.00129994 0.138757 0.00773413)
(4.67607e-05 0.102019 0.00471176)
(0.000201814 -0.0555068 0.00371683)
(0.00161621 -0.132857 0.0103358)
(0.00283761 -0.170728 0.0130062)
(0.00363589 -0.184913 0.0127886)
(0.00426101 -0.189207 0.0114968)
(0.0048161 -0.188685 0.00978231)
(0.00536703 -0.184498 0.00743699)
(0.00571661 -0.176848 0.00423889)
(0.00595109 -0.166051 -0.000229918)
(0.00596437 -0.153614 -0.00533539)
(0.00587961 -0.141491 -0.0102527)
(0.00581424 -0.130655 -0.0143842)
(0.00583633 -0.121116 -0.0175251)
(0.00596145 -0.112472 -0.0197833)
(0.00617682 -0.104283 -0.0213387)
(0.00646494 -0.0961973 -0.0223403)
(0.00680871 -0.0879577 -0.0228818)
(0.00718819 -0.0793998 -0.0230102)
(0.00760761 -0.0705184 -0.0227628)
(0.00795793 -0.0619652 -0.022305)
(0.00824808 -0.0537223 -0.021709)
(0.00846673 -0.0456401 -0.0210143)
(0.00861141 -0.0375675 -0.0202498)
(0.00867689 -0.0293541 -0.0194399)
(0.00866812 -0.0208179 -0.0186036)
(0.00857688 -0.0116938 -0.0177416)
(0.00842273 -0.0016626 -0.016785)
(0.00825778 0.00810398 -0.0158437)
(0.00795027 0.0198654 -0.0146572)
(0.00727963 0.0367233 -0.0126756)
(0.00623386 0.0621559 -0.00907943)
(0.00471893 0.097971 -0.00323001)
(0.00282602 0.132336 0.00290725)
(0.00101827 0.1428 0.00471155)
(-4.22944e-05 0.101789 0.00253214)
(0.00018655 -0.0634779 0.00559858)
(0.00108582 -0.147932 0.0146333)
(0.00153341 -0.186393 0.0182096)
(0.00172505 -0.198798 0.0182874)
(0.00186738 -0.200965 0.0171318)
(0.00200632 -0.197792 0.015292)
(0.00208748 -0.189831 0.0124589)
(0.00215133 -0.177877 0.00855372)
(0.00198602 -0.16385 0.00395374)
(0.00202125 -0.149377 -0.00161427)
(0.00202251 -0.13628 -0.00722294)
(0.00218435 -0.125331 -0.0122556)
(0.00237314 -0.115896 -0.0160588)
(0.00268469 -0.107439 -0.018803)
(0.00308377 -0.099453 -0.0207145)
(0.00355006 -0.091572 -0.0219846)
(0.00406528 -0.0835403 -0.0227459)
(0.00461173 -0.0751733 -0.0230769)
(0.00519509 -0.0664291 -0.0230244)
(0.00575642 -0.0576741 -0.0226945)
(0.0062351 -0.0492137 -0.0222075)
(0.00663396 -0.0409631 -0.0216107)
(0.00694514 -0.0327736 -0.0209321)
(0.00716452 -0.0244955 -0.0201969)
(0.00730445 -0.0159826 -0.0194377)
(0.00735258 -0.00708184 -0.0186835)
(0.00734833 0.00240905 -0.0178379)
(0.00726982 0.0117725 -0.016976)
(0.00699619 0.0245174 -0.0156867)
(0.00639586 0.0422533 -0.0136232)
(0.0054334 0.0684941 -0.0101021)
(0.00407755 0.104456 -0.00459751)
(0.0024656 0.137186 0.000717956)
(0.000912815 0.146234 0.00264863)
(-3.78131e-05 0.101843 0.00167194)
(0.000125505 -0.0678768 0.00696901)
(0.000337047 -0.153669 0.0171762)
(5.74056e-05 -0.18996 0.0213974)
(-0.000304259 -0.200955 0.0220953)
(-0.000659922 -0.202477 0.0214312)
(-0.00092136 -0.198811 0.0198128)
(-0.00109161 -0.190651 0.0170415)
(-0.0011046 -0.178379 0.0128462)
(-0.000829979 -0.163429 0.00753794)
(-0.000572985 -0.147929 0.00189304)
(-0.000144998 -0.133509 -0.00358962)
(0.0001473 -0.121002 -0.00827413)
(0.000563913 -0.110679 -0.0128957)
(0.000934725 -0.101901 -0.01642)
(0.00134651 -0.0938879 -0.0188902)
(0.00180845 -0.0861244 -0.0205472)
(0.00231467 -0.0783275 -0.0215759)
(0.00285717 -0.070327 -0.022112)
(0.00342109 -0.0620049 -0.0222461)
(0.00402357 -0.0533655 -0.0220441)
(0.00456101 -0.0448816 -0.0216598)
(0.00504263 -0.0365858 -0.0211606)
(0.00545104 -0.0283615 -0.0205828)
(0.00578038 -0.0200738 -0.0199541)
(0.00603556 -0.0116003 -0.0193095)
(0.00620719 -0.00273643 -0.0186716)
(0.00634539 0.00651272 -0.0179631)
(0.00635232 0.0164348 -0.0171442)
(0.00611149 0.0299684 -0.0158757)
(0.00559372 0.0488957 -0.0138519)
(0.00474035 0.0762917 -0.0105085)
(0.00350778 0.112214 -0.00552018)
(0.0021178 0.142825 -0.000897147)
(0.000791362 0.150133 0.00112177)
(-4.04865e-05 0.10217 0.000842995)
(6.08949e-06 -0.0716454 0.00811342)
(-0.00025002 -0.161509 0.0193099)
(-0.000940529 -0.199257 0.0243765)
(-0.00157374 -0.210133 0.0258252)
(-0.00212361 -0.211119 0.0258001)
(-0.00255843 -0.206639 0.0248624)
(-0.00278471 -0.197468 0.0229461)
(-0.00276889 -0.184278 0.01987)
(-0.00246651 -0.168299 0.0154255)
(-0.0019184 -0.151263 0.00977037)
(-0.00127397 -0.134978 0.00352912)
(-0.000571792 -0.120749 -0.00243853)
(-3.4787e-05 -0.108964 -0.0068687)
(0.000447781 -0.0989104 -0.0111388)
(0.000873852 -0.0902713 -0.0148222)
(0.00129921 -0.0822677 -0.0174055)
(0.00175802 -0.0744119 -0.0191447)
(0.00225709 -0.0664331 -0.020224)
(0.00278988 -0.0582135 -0.0207909)
(0.00334226 -0.0497541 -0.0209585)
(0.00390944 -0.0411683 -0.0208223)
(0.00440591 -0.0327355 -0.02052)
(0.00484384 -0.0243775 -0.0201017)
(0.00520888 -0.015963 -0.0196019)
(0.00550469 -0.00740278 -0.0190643)
(0.00571696 0.00132997 -0.0185319)
(0.00586956 0.0101471 -0.0179203)
(0.00587519 0.0212348 -0.0170311)
(0.0056194 0.035481 -0.0157311)
(0.00509827 0.0551525 -0.0137283)
(0.00427966 0.0832754 -0.0105424)
(0.00314019 0.119036 -0.00602045)
(0.00192466 0.147852 -0.00193876)
(0.000769835 0.153652 0.000130343)
(-9.39079e-06 0.102833 0.000432605)
(3.80771e-05 -0.0730229 0.00838117)
(-0.000637782 -0.16334 0.0192215)
(-0.00179004 -0.201794 0.0246708)
(-0.00268673 -0.213312 0.0270952)
(-0.00341666 -0.214911 0.0280002)
(-0.00400031 -0.211265 0.0281301)
(-0.00432447 -0.203249 0.0274581)
(-0.00435265 -0.191334 0.0257959)
(-0.00403725 -0.176218 0.0228685)
(-0.00337362 -0.159014 0.0184789)
(-0.00243658 -0.141152 0.0127193)
(-0.00141859 -0.124203 0.00612418)
(-0.000476044 -0.109454 -0.00045674)
(0.000258433 -0.0973491 -0.00555831)
(0.000799404 -0.0871781 -0.00921636)
(0.00123675 -0.0782821 -0.0126178)
(0.00163149 -0.0701665 -0.0153572)
(0.00204418 -0.0622547 -0.017183)
(0.00249169 -0.0542242 -0.0183301)
(0.00296559 -0.0459358 -0.0189552)
(0.00347524 -0.0374013 -0.0191791)
(0.00394663 -0.0288709 -0.0191548)
(0.00438041 -0.0203718 -0.0189646)
(0.00475782 -0.0118542 -0.0186704)
(0.0050652 -0.00320364 -0.01833)
(0.00533625 0.00562601 -0.0179043)
(0.0054881 0.0149353 -0.017356)
(0.00545139 0.0267028 -0.0165097)
(0.00519669 0.0419001 -0.0152497)
(0.0046836 0.0626147 -0.0133294)
(0.0038853 0.0914183 -0.0103597)
(0.00280417 0.126658 -0.00627843)
(0.00172475 0.153381 -0.00264673)
(0.00070623 0.157538 -0.000540365)
(-1.35997e-05 0.103754 0.000229023)
(-2.96594e-05 -0.0738775 0.00841255)
(-0.000833589 -0.165197 0.018536)
(-0.00214286 -0.206438 0.023583)
(-0.00322134 -0.220297 0.0265133)
(-0.00409206 -0.222809 0.0279811)
(-0.00483863 -0.219813 0.028819)
(-0.00532497 -0.212396 0.0290529)
(-0.00551861 -0.201179 0.028615)
(-0.00535754 -0.186855 0.027334)
(-0.00480961 -0.170251 0.0249704)
(-0.00389318 -0.152256 0.0212966)
(-0.00268893 -0.133848 0.0162414)
(-0.00137258 -0.116204 0.0100942)
(-0.000165421 -0.100548 0.00359505)
(0.000798775 -0.0875197 -0.00234456)
(0.00149316 -0.0768306 -0.00668026)
(0.00199909 -0.067522 -0.00985547)
(0.00239237 -0.0589947 -0.0126566)
(0.00275489 -0.0507945 -0.0147712)
(0.00312896 -0.0425099 -0.0161193)
(0.0035436 -0.0340264 -0.0169003)
(0.00394803 -0.0254648 -0.0172973)
(0.00433487 -0.0168522 -0.0174301)
(0.00468093 -0.00818992 -0.0173903)
(0.00496398 0.000497839 -0.0172519)
(0.00520046 0.00916138 -0.0169675)
(0.0053257 0.0195057 -0.0164508)
(0.00524647 0.0319879 -0.0156609)
(0.00496258 0.0479374 -0.0144814)
(0.00443488 0.0695356 -0.0126775)
(0.00364882 0.0989575 -0.0099096)
(0.00261465 0.1337 -0.00626341)
(0.00163527 0.158533 -0.00302913)
(0.000710881 0.161208 -0.000901862)
(9.21864e-06 0.104832 0.000196365)
(-0.000159587 -0.0738362 0.00821451)
(-0.00104768 -0.165209 0.0172477)
(-0.00244396 -0.206759 0.0211507)
(-0.0038264 -0.221896 0.023395)
(-0.00493439 -0.22576 0.0248016)
(-0.00588941 -0.224353 0.0258265)
(-0.00654188 -0.218753 0.0265457)
(-0.00686647 -0.209538 0.0269899)
(-0.00680865 -0.197199 0.0270877)
(-0.00634691 -0.182299 0.0266369)
(-0.00548157 -0.165472 0.0253454)
(-0.00425593 -0.14737 0.0229054)
(-0.00276062 -0.12869 0.0190955)
(-0.00113613 -0.110323 0.0139422)
(0.00040684 -0.0934045 0.00791485)
(0.00166072 -0.0788944 0.00189338)
(0.00254518 -0.0669558 -0.00319997)
(0.00312075 -0.0568643 -0.00683816)
(0.00352411 -0.0477406 -0.00958731)
(0.00380945 -0.039138 -0.0119353)
(0.00409356 -0.0306207 -0.0135398)
(0.00439052 -0.021987 -0.0145633)
(0.00466567 -0.0132603 -0.0151762)
(0.00492047 -0.0044532 -0.0155032)
(0.00514778 0.00446637 -0.0156283)
(0.00530712 0.0134722 -0.0155223)
(0.00533095 0.0244184 -0.0151434)
(0.00519362 0.0377037 -0.0144729)
(0.00486695 0.0545824 -0.0134212)
(0.0043051 0.0771035 -0.0117871)
(0.00350731 0.10703 -0.00928398)
(0.00248929 0.14108 -0.00603502)
(0.00157158 0.16395 -0.00317412)
(0.000706487 0.165141 -0.00107692)
(1.69056e-05 0.106122 0.000275461)
(-0.000210311 -0.0730402 0.00770701)
(-0.00128338 -0.164716 0.0154853)
(-0.00256879 -0.207216 0.0186998)
(-0.00386197 -0.224058 0.0204268)
(-0.00493285 -0.229489 0.0212944)
(-0.00586256 -0.22956 0.0219646)
(-0.00655659 -0.225563 0.0226074)
(-0.00694325 -0.218161 0.0232956)
(-0.00698304 -0.207818 0.0240375)
(-0.00664121 -0.194931 0.0247415)
(-0.00591389 -0.179893 0.0252015)
(-0.00482457 -0.163114 0.0251143)
(-0.00341714 -0.145028 0.0241246)
(-0.0017637 -0.126111 0.0218905)
(1.34008e-05 -0.106994 0.018197)
(0.00174622 -0.0886254 0.0131518)
(0.0032353 -0.0721188 0.00733887)
(0.00432211 -0.0582002 0.00169696)
(0.00496859 -0.0467127 -0.00286032)
(0.00535544 -0.0367483 -0.00601082)
(0.00551478 -0.0275577 -0.0086559)
(0.00561317 -0.0186518 -0.0106747)
(0.0056833 -0.00970883 -0.0120463)
(0.00574214 -0.000747501 -0.0129415)
(0.00581787 0.0079015 -0.0133999)
(0.00583809 0.0178472 -0.013563)
(0.00571876 0.0293468 -0.0134156)
(0.00546328 0.043249 -0.0129475)
(0.00504241 0.0609346 -0.0120904)
(0.00441218 0.0843265 -0.0106827)
(0.00356989 0.114751 -0.00847591)
(0.00253051 0.148161 -0.00560347)
(0.00161726 0.169227 -0.00307157)
(0.000772808 0.16906 -0.00111014)
(3.75971e-05 0.107678 0.000416503)
(-0.000189744 -0.071138 0.00685509)
(-0.00113384 -0.162759 0.0132754)
(-0.00227782 -0.206857 0.0161214)
(-0.00319117 -0.224673 0.0166637)
(-0.00403789 -0.231298 0.0171507)
(-0.00473825 -0.232514 0.0174313)
(-0.00528628 -0.230186 0.0176712)
(-0.00557475 -0.224804 0.018029)
(-0.00558849 -0.216664 0.0186012)
(-0.00529611 -0.205989 0.0194369)
(-0.00469486 -0.192994 0.0205122)
(-0.00380851 -0.177956 0.0216948)
(-0.00267753 -0.161204 0.0227269)
(-0.001288 -0.143085 0.0232394)
(0.000324115 -0.123958 0.0227976)
(0.00204173 -0.104247 0.0209958)
(0.00375335 -0.0846422 0.0176113)
(0.00529501 -0.066156 0.0128159)
(0.00648724 -0.0498569 0.00729208)
(0.00718737 -0.0362544 0.00195636)
(0.00747824 -0.0248719 -0.00215016)
(0.00747119 -0.0147546 -0.00523683)
(0.00728184 -0.00527 -0.00772242)
(0.00710627 0.0036373 -0.00943969)
(0.00693971 0.0124563 -0.0105178)
(0.00670175 0.0228806 -0.0111113)
(0.00637525 0.0349927 -0.0113163)
(0.00595044 0.0495502 -0.0111445)
(0.00538875 0.0679748 -0.0105433)
(0.00465094 0.0921236 -0.00936756)
(0.00373788 0.122919 -0.00749684)
(0.00265141 0.155547 -0.00500448)
(0.00171653 0.174839 -0.00279345)
(0.000843631 0.173441 -0.000969589)
(4.04342e-05 0.109555 0.000602462)
(-0.000153337 -0.0703226 0.00635185)
(-0.000695809 -0.162521 0.0124482)
(-0.00116398 -0.208662 0.0144314)
(-0.00148931 -0.228043 0.0147408)
(-0.00177048 -0.235771 0.014547)
(-0.00199285 -0.237964 0.0142014)
(-0.00213507 -0.236625 0.0137783)
(-0.00216522 -0.232309 0.0133946)
(-0.00206155 -0.225336 0.0131619)
(-0.00181318 -0.215922 0.0132072)
(-0.00140764 -0.204243 0.0136607)
(-0.000813221 -0.190515 0.0146147)
(-1.82226e-05 -0.175004 0.0160581)
(0.000915663 -0.158 0.0178216)
(0.00199708 -0.139772 0.0195638)
(0.00324505 -0.120538 0.0208021)
(0.00460647 -0.100514 0.0210005)
(0.00604822 -0.0801149 0.0196901)
(0.00742171 -0.0600869 0.0166436)
(0.00852164 -0.0414977 0.0120969)
(0.00919582 -0.0253118 0.00680734)
(0.00936815 -0.0118163 0.00177014)
(0.00911919 -0.000626782 -0.00221123)
(0.00876033 0.00822425 -0.00475244)
(0.00831907 0.0180419 -0.00672136)
(0.00778963 0.0288401 -0.0080633)
(0.00721219 0.0412726 -0.00885636)
(0.00657348 0.0562887 -0.00915057)
(0.00583887 0.0752712 -0.00892178)
(0.00497079 0.099985 -0.00810038)
(0.00396842 0.131045 -0.00655868)
(0.00282551 0.162904 -0.00440452)
(0.00184984 0.180652 -0.00247139)
(0.000933174 0.178187 -0.000795156)
(4.56657e-05 0.111832 0.000726584)
(-0.000122728 -0.0710555 0.00512395)
(7.70305e-05 -0.166567 0.0105007)
(0.000539067 -0.215068 0.0127047)
(0.000998973 -0.234955 0.0132552)
(0.00136959 -0.242669 0.0130398)
(0.0016625 -0.244923 0.0124509)
(0.00191251 -0.243691 0.0116453)
(0.00215156 -0.23954 0.0106728)
(0.00238176 -0.232744 0.00963648)
(0.00260937 -0.223487 0.00865885)
(0.0028322 -0.211985 0.00791852)
(0.00305862 -0.198544 0.0076395)
(0.00332291 -0.183545 0.0080294)
(0.00366159 -0.167335 0.0091951)
(0.00410939 -0.15014 0.0110677)
(0.00474982 -0.132064 0.0133752)
(0.00560308 -0.113106 0.0156743)
(0.00659603 -0.0932701 0.0174089)
(0.00767781 -0.0727058 0.0179907)
(0.0087487 -0.0518156 0.0169176)
(0.00965068 -0.0313992 0.013959)
(0.010192 -0.012687 0.00940228)
(0.0101753 0.00272233 0.00431557)
(0.00983961 0.0132055 0.000707041)
(0.00928129 0.024251 -0.00231711)
(0.00857709 0.0357549 -0.00456542)
(0.00780587 0.0486179 -0.00610313)
(0.0069855 0.0640048 -0.00700317)
(0.00610163 0.0834068 -0.007282)
(0.00511726 0.108531 -0.00687823)
(0.00403338 0.139634 -0.00569141)
(0.00284837 0.170568 -0.00385937)
(0.0018495 0.186868 -0.00217533)
(0.000915829 0.183382 -0.000656664)
(3.45414e-06 0.114323 0.000737334)
(-5.85195e-06 -0.0744594 0.0046634)
(0.000739201 -0.17462 0.0104281)
(0.001724 -0.225356 0.0130794)
(0.00266261 -0.245766 0.0137291)
(0.00345015 -0.253249 0.0135083)
(0.00411128 -0.254969 0.0128387)
(0.00462177 -0.253162 0.011897)
(0.00501746 -0.248239 0.0106186)
(0.00526665 -0.240498 0.00909057)
(0.00538515 -0.230161 0.00739672)
(0.00537447 -0.217551 0.00569173)
(0.00526293 -0.203168 0.00421327)
(0.00510381 -0.187616 0.00323822)
(0.00496581 -0.171417 0.00300533)
(0.00492134 -0.154838 0.0036391)
(0.00502215 -0.137876 0.00511132)
(0.00531101 -0.120349 0.00724271)
(0.00580808 -0.101996 0.0097056)
(0.00652364 -0.0826081 0.0120341)
(0.00743177 -0.0620671 0.0136507)
(0.00836526 -0.0404308 0.0139239)
(0.00911018 -0.0182995 0.0123159)
(0.00947308 0.00207466 0.0089188)
(0.00941664 0.0157943 0.00568248)
(0.00906055 0.0294448 0.00205864)
(0.00842403 0.0424221 -0.00102467)
(0.00764713 0.0560238 -0.0033655)
(0.00678723 0.0718632 -0.00496592)
(0.00585823 0.0916734 -0.0058233)
(0.00483743 0.117157 -0.00587538)
(0.0037366 0.148233 -0.00504198)
(0.00257506 0.178162 -0.00350477)
(0.00161658 0.193082 -0.00204584)
(0.000735275 0.188529 -0.000689572)
(-9.29015e-05 0.116466 0.000564304)
(3.68961e-05 -0.0799542 0.00481574)
(0.00097092 -0.185168 0.0110846)
(0.00191639 -0.237072 0.0139628)
(0.00271311 -0.257151 0.0147208)
(0.00336915 -0.263957 0.0145196)
(0.0039035 -0.264823 0.0138136)
(0.00427432 -0.261993 0.0127902)
(0.0044785 -0.25576 0.0113599)
(0.00450251 -0.246503 0.009583)
(0.00436717 -0.234533 0.00752674)
(0.00409267 -0.220353 0.00534001)
(0.00371918 -0.204688 0.00325394)
(0.00334343 -0.188345 0.00152459)
(0.00304511 -0.17197 0.000355036)
(0.00285941 -0.155829 -0.000119655)
(0.00282467 -0.139821 0.000170652)
(0.00296849 -0.123612 0.00120844)
(0.0033078 -0.10679 0.00288194)
(0.00384178 -0.0889318 0.00497603)
(0.00455106 -0.0696187 0.0071605)
(0.00539594 -0.0484543 0.00897897)
(0.00628775 -0.0254273 0.00984473)
(0.00706881 -0.00241334 0.00923042)
(0.00745817 0.0145662 0.00755901)
(0.00742335 0.0315725 0.00480953)
(0.007156 0.0471712 0.00171027)
(0.00657323 0.0624034 -0.00103398)
(0.00584382 0.0792029 -0.00316217)
(0.00499944 0.09969 -0.00454387)
(0.00404926 0.125658 -0.00504179)
(0.00302516 0.156641 -0.00455745)
(0.00198324 0.185375 -0.00330454)
(0.00115337 0.198853 -0.00205984)
(0.000416762 0.193008 -0.000863455)
(-0.000195492 0.117588 0.000235318)
(0.000193541 -0.0855683 0.00506434)
(0.000694955 -0.194576 0.0112966)
(0.000829973 -0.246658 0.0142364)
(0.00094377 -0.266239 0.0153011)
(0.00111351 -0.272303 0.0153555)
(0.00116314 -0.272408 0.0148053)
(0.0011224 -0.268471 0.0137706)
(0.000956532 -0.260929 0.0122293)
(0.000676538 -0.250243 0.0102367)
(0.000303134 -0.23693 0.00789781)
(-7.67249e-05 -0.221737 0.00540402)
(-0.000381863 -0.205541 0.00300323)
(-0.000581854 -0.189122 0.000939761)
(-0.000643303 -0.17298 -0.000601134)
(-0.000594919 -0.157282 -0.00152324)
(-0.000452893 -0.14192 -0.00180336)
(-0.000183276 -0.126588 -0.00146199)
(0.000220877 -0.110851 -0.000546949)
(0.000774254 -0.0941901 0.000860375)
(0.00148033 -0.0760281 0.00262805)
(0.00233361 -0.0557805 0.00454001)
(0.00332574 -0.0331696 0.0062348)
(0.004417 -0.00940972 0.00716371)
(0.00509896 0.0104883 0.00690788)
(0.00549893 0.030124 0.00544128)
(0.00547819 0.0487428 0.00316717)
(0.00527305 0.0664095 0.000561604)
(0.00474079 0.0848586 -0.0017489)
(0.00404116 0.106469 -0.00345877)
(0.00320146 0.133148 -0.00431242)
(0.00229141 0.164083 -0.00414556)
(0.00141309 0.191536 -0.00317166)
(0.000743642 0.203547 -0.00214268)
(0.000169678 0.196198 -0.00110051)
(-0.000218122 0.117446 2.80673e-06)
(7.47008e-05 -0.0889059 0.00537676)
(-7.50793e-05 -0.19768 0.0111651)
(-0.000623255 -0.249157 0.0139735)
(-0.0011768 -0.269332 0.0153022)
(-0.00176975 -0.276127 0.0157542)
(-0.00216342 -0.276066 0.0155676)
(-0.00261674 -0.271587 0.0147924)
(-0.00301505 -0.2635 0.0134413)
(-0.00336032 -0.252384 0.011552)
(-0.00360894 -0.238919 0.00923356)
(-0.00372097 -0.223881 0.00667416)
(-0.00367767 -0.20802 0.00411528)
(-0.00353183 -0.191931 0.00180501)
(-0.00333341 -0.176018 -5.19202e-05)
(-0.00303725 -0.160489 -0.00132861)
(-0.00263532 -0.14534 -0.00198115)
(-0.00219525 -0.130378 -0.00202643)
(-0.00171134 -0.115219 -0.00151495)
(-0.00113554 -0.0993514 -0.000516336)
(-0.00044555 -0.0821772 0.000879397)
(0.000386832 -0.063113 0.00253169)
(0.00139052 -0.041795 0.00419779)
(0.00252968 -0.0184149 0.00550209)
(0.00348333 0.00560806 0.00601254)
(0.00404889 0.0263673 0.00550288)
(0.00442737 0.0477581 0.00390921)
(0.00435388 0.0681794 0.00176896)
(0.00401316 0.0889491 -0.000458662)
(0.00341669 0.112212 -0.00232585)
(0.00265491 0.139828 -0.00345853)
(0.00183382 0.170685 -0.0036023)
(0.00108352 0.196738 -0.00292274)
(0.000529078 0.207313 -0.00210226)
(8.45287e-05 0.198434 -0.00117678)
(-0.000172401 0.116894 -6.02474e-05)
(1.79742e-05 -0.0891828 0.00546967)
(-0.00058929 -0.197766 0.0106555)
(-0.00156781 -0.249205 0.0132787)
(-0.00237926 -0.269401 0.0148779)
(-0.00318571 -0.276549 0.0157664)
(-0.00393213 -0.277413 0.0163487)
(-0.00454976 -0.273684 0.0163413)
(-0.00500433 -0.266347 0.0157512)
(-0.00527766 -0.256082 0.0146062)
(-0.00533887 -0.243498 0.0129531)
(-0.00518875 -0.229175 0.0108744)
(-0.00485652 -0.213687 0.00850576)
(-0.00438002 -0.197609 0.00604509)
(-0.00382967 -0.181448 0.00373264)
(-0.00326879 -0.165566 0.00180229)
(-0.00275991 -0.150117 0.000425572)
(-0.00227486 -0.135019 -0.000311311)
(-0.00176144 -0.11998 -0.000407498)
(-0.00121356 -0.104543 8.40367e-05)
(-0.000608666 -0.0881345 0.00107002)
(8.04277e-05 -0.0700725 0.00241774)
(0.000908684 -0.0497022 0.00392344)
(0.00185929 -0.0267248 0.00527597)
(0.00285123 -0.00197615 0.00606568)
(0.00363693 0.0209311 0.00598488)
(0.00413272 0.0451344 0.00497165)
(0.00420291 0.0683866 0.00334674)
(0.00388716 0.0918215 0.00104464)
(0.00334176 0.117038 -0.00100736)
(0.00260843 0.145724 -0.00239523)
(0.00181965 0.176506 -0.002838)
(0.00111665 0.20119 -0.00245699)
(0.000591251 0.210494 -0.00183591)
(0.000169667 0.200217 -0.000999987)
(-6.06824e-05 0.116346 0.000231175)
(2.74417e-05 -0.0873442 0.00485839)
(-0.00117198 -0.195576 0.00824481)
(-0.00255416 -0.247855 0.0103495)
(-0.0035254 -0.268982 0.0125136)
(-0.00428034 -0.276687 0.01431)
(-0.00499765 -0.278244 0.0156283)
(-0.00554861 -0.275647 0.0165305)
(-0.00591731 -0.269679 0.0169304)
(-0.00605806 -0.260888 0.0168189)
(-0.0059505 -0.249721 0.0161861)
(-0.00559677 -0.236577 0.0150326)
(-0.00502044 -0.221855 0.0134009)
(-0.00427256 -0.206009 0.0113958)
(-0.00342598 -0.189537 0.00919041)
(-0.00256412 -0.172931 0.00701031)
(-0.00175106 -0.156577 0.00509418)
(-0.00104425 -0.140653 0.00364413)