/*--------------------------------*- C++ -*----------------------------------*\
| =========                 |                                                 |
| \\      /  F ield         | OpenFOAM: The Open Source CFD Toolbox           |
|  \\    /   O peration     | Version:  2.0.x                                 |
|   \\  /    A nd           | Web:      www.OpenFOAM.org                      |
|    \\/     M anipulation  |                                                 |
\*---------------------------------------------------------------------------*/
FoamFile
{
    version     2.0;
    format      ascii;
    class       volScalarField;
    location    "50";
    object      k;
}
// * * * * * * * * * * * * * * * * * * * * * * * * * * * * * * * * * * * * * //

dimensions      [0 2 -2 0 0 0 0];

internalField   nonuniform List<scalar> 
78750
(
0.000413567
0.000250845
0.00018463
0.000145578
0.000117306
9.94582e-05
8.71653e-05
7.77451e-05
7.02811e-05
6.41876e-05
5.93273e-05
5.56111e-05
5.25552e-05
5.01357e-05
4.82738e-05
4.68507e-05
4.57683e-05
4.491e-05
4.42094e-05
4.35115e-05
4.32633e-05
4.29759e-05
4.28551e-05
4.27127e-05
4.24815e-05
4.24406e-05
4.26073e-05
4.30989e-05
4.32747e-05
4.31246e-05
4.2856e-05
4.22418e-05
4.04343e-05
3.32928e-05
1.44833e-05
2.69856e-05
3.81025e-05
4.3048e-05
4.41105e-05
4.34584e-05
4.26775e-05
4.27441e-05
4.27251e-05
4.22629e-05
4.18605e-05
4.20069e-05
4.2326e-05
4.21562e-05
4.15935e-05
4.07805e-05
3.98215e-05
3.9081e-05
3.84595e-05
3.81256e-05
3.79184e-05
3.79706e-05
3.82695e-05
3.87015e-05
3.92946e-05
3.99782e-05
4.06366e-05
4.12192e-05
4.17934e-05
4.24315e-05
4.32664e-05
4.3683e-05
4.38447e-05
4.40871e-05
4.7384e-05
7.4963e-05
3.04678e-05
3.92633e-05
4.44304e-05
4.67695e-05
4.67684e-05
4.55591e-05
4.35238e-05
4.16392e-05
4.0177e-05
3.90856e-05
3.83097e-05
3.7809e-05
3.75274e-05
3.74213e-05
3.73236e-05
3.73533e-05
3.73797e-05
3.74686e-05
3.76562e-05
3.79505e-05
3.83939e-05
3.89457e-05
3.95324e-05
4.01047e-05
4.07466e-05
4.15375e-05
4.23498e-05
4.309e-05
4.37634e-05
4.44185e-05
4.53002e-05
4.69063e-05
5.28916e-05
7.07532e-05
0.00012304
3.05536e-05
4.4536e-05
5.25479e-05
5.64144e-05
5.71311e-05
5.60731e-05
5.36566e-05
5.04686e-05
4.71085e-05
4.42761e-05
4.19697e-05
3.99792e-05
3.82522e-05
3.67988e-05
3.56887e-05
3.49812e-05
3.45745e-05
3.44729e-05
3.46143e-05
3.51273e-05
3.59772e-05
3.70574e-05
3.82707e-05
3.95771e-05
4.09182e-05
4.21999e-05
4.33038e-05
4.41091e-05
4.46229e-05
4.52435e-05
4.69911e-05
5.20142e-05
6.5927e-05
9.57893e-05
0.000163171
3.83698e-05
5.034e-05
5.65471e-05
5.89955e-05
5.87988e-05
5.6632e-05
5.3378e-05
4.98032e-05
4.64127e-05
4.35255e-05
4.12416e-05
3.9474e-05
3.82056e-05
3.74532e-05
3.71535e-05
3.71864e-05
3.75468e-05
3.82639e-05
3.9273e-05
4.05091e-05
4.18934e-05
4.33485e-05
4.48051e-05
4.61964e-05
4.74061e-05
4.83115e-05
4.88964e-05
4.92108e-05
4.93858e-05
5.00325e-05
5.25665e-05
6.05241e-05
8.05375e-05
0.000117829
0.000191215
4.09907e-05
5.24084e-05
5.89698e-05
6.19403e-05
6.22841e-05
6.06928e-05
5.80872e-05
5.52485e-05
5.26798e-05
5.05374e-05
4.87816e-05
4.7439e-05
4.65655e-05
4.61662e-05
4.61465e-05
4.64323e-05
4.70001e-05
4.77608e-05
4.86318e-05
4.95348e-05
5.03991e-05
5.11621e-05
5.17788e-05
5.22209e-05
5.2454e-05
5.23559e-05
5.19501e-05
5.15877e-05
5.17305e-05
5.33485e-05
5.88127e-05
7.09497e-05
9.51655e-05
0.000135716
0.000208381
4.25153e-05
5.62118e-05
6.39268e-05
6.75418e-05
6.83141e-05
6.70975e-05
6.49397e-05
6.26556e-05
6.06552e-05
5.89272e-05
5.743e-05
5.62167e-05
5.53219e-05
5.47472e-05
5.44722e-05
5.441e-05
5.44754e-05
5.46526e-05
5.48774e-05
5.50955e-05
5.52804e-05
5.52641e-05
5.4974e-05
5.45206e-05
5.3909e-05
5.31641e-05
5.23176e-05
5.16306e-05
5.18848e-05
5.50363e-05
6.34283e-05
7.96321e-05
0.000107345
0.00014865
0.000216409
4.52726e-05
5.94381e-05
6.74764e-05
7.17524e-05
7.35314e-05
7.33553e-05
7.20787e-05
7.0452e-05
6.88934e-05
6.74402e-05
6.60855e-05
6.49007e-05
6.39207e-05
6.31468e-05
6.2563e-05
6.2133e-05
6.18021e-05
6.15181e-05
6.12258e-05
6.08695e-05
6.04033e-05
5.97998e-05
5.90367e-05
5.81101e-05
5.70221e-05
5.58194e-05
5.4539e-05
5.3521e-05
5.40489e-05
5.88903e-05
7.00567e-05
8.91969e-05
0.000118032
0.000157172
0.000217042
4.82671e-05
6.30186e-05
7.13463e-05
7.60797e-05
7.86279e-05
7.93349e-05
7.89774e-05
7.81528e-05
7.71917e-05
7.61884e-05
7.51689e-05
7.41963e-05
7.33141e-05
7.25344e-05
7.18496e-05
7.12435e-05
7.06868e-05
7.01451e-05
6.95769e-05
6.89364e-05
6.81772e-05
6.72658e-05
6.61811e-05
6.49003e-05
6.34207e-05
6.17955e-05
5.99765e-05
5.81659e-05
5.8175e-05
6.23338e-05
7.489e-05
9.59653e-05
0.000125096
0.000162202
0.000219588
5.1364e-05
6.62419e-05
7.46831e-05
7.98109e-05
8.30471e-05
8.45419e-05
8.4859e-05
8.45868e-05
8.40723e-05
8.34438e-05
8.27475e-05
8.20503e-05
8.13898e-05
8.0775e-05
8.01979e-05
7.96461e-05
7.90969e-05
7.8524e-05
7.78916e-05
7.71571e-05
7.62783e-05
7.52238e-05
7.39738e-05
7.25067e-05
7.08289e-05
6.8999e-05
6.68682e-05
6.42883e-05
6.26517e-05
6.49525e-05
7.63942e-05
9.75407e-05
0.000127681
0.000166563
0.000226582
5.5365e-05
7.01037e-05
7.85123e-05
8.38619e-05
8.7555e-05
8.95981e-05
9.04472e-05
9.06103e-05
9.04392e-05
9.00918e-05
8.96297e-05
8.91256e-05
8.86213e-05
8.81283e-05
8.76397e-05
8.71434e-05
8.66185e-05
8.60325e-05
8.53454e-05
8.45146e-05
8.34963e-05
8.22552e-05
8.07706e-05
7.9035e-05
7.70731e-05
7.49678e-05
7.25279e-05
6.95332e-05
6.73772e-05
6.98003e-05
8.12955e-05
0.000103484
0.000134649
0.000173398
0.000221653
5.91395e-05
7.35219e-05
8.19346e-05
8.75629e-05
9.17261e-05
9.42586e-05
9.55234e-05
9.60011e-05
9.60631e-05
9.58953e-05
9.55792e-05
9.52007e-05
9.48057e-05
9.44044e-05
9.39867e-05
9.35359e-05
9.30282e-05
9.24287e-05
9.16953e-05
9.07831e-05
8.96461e-05
8.82477e-05
8.65669e-05
8.46028e-05
8.23989e-05
8.00505e-05
7.73514e-05
7.42009e-05
7.23962e-05
7.61248e-05
8.83798e-05
0.000109688
0.000138728
0.00017412
0.000217391
6.28531e-05
7.71089e-05
8.57105e-05
9.16979e-05
9.63033e-05
9.92017e-05
0.00010071
0.000101332
0.000101485
0.00010138
0.000101111
0.000100778
0.000100435
0.000100093
9.97376e-05
9.93462e-05
9.88887e-05
9.83267e-05
9.76153e-05
9.67059e-05
9.55493e-05
9.41024e-05
9.23366e-05
9.02496e-05
8.78879e-05
8.5354e-05
8.24323e-05
7.90034e-05
7.69442e-05
8.10537e-05
9.39261e-05
0.000115049
0.00014229
0.000174162
0.000211643
6.59953e-05
8.02582e-05
8.91672e-05
9.56116e-05
0.000100732
0.000104029
0.000105765
0.000106481
0.000106655
0.000106534
0.000106223
0.000105845
0.000105471
0.000105119
0.00010477
0.000104393
0.000103951
0.000103398
0.000102687
0.000101764
0.000100574
9.90619e-05
9.71852e-05
9.49337e-05
9.23531e-05
8.95476e-05
8.63006e-05
8.2573e-05
8.04546e-05
8.49655e-05
9.79081e-05
0.000118341
0.00014372
0.000171595
0.000204261
6.87969e-05
8.34242e-05
9.28091e-05
9.97896e-05
0.00010547
0.000109179
0.000111119
0.000111871
0.000111996
0.000111784
0.000111355
0.00011086
0.000110389
0.000109969
0.000109584
0.000109199
0.000108775
0.000108259
0.0001076
0.000106738
0.000105607
0.000104142
0.000102287
0.000100016
9.73592e-05
9.43962e-05
9.08951e-05
8.67615e-05
8.40976e-05
8.81383e-05
0.000100997
0.000120692
0.000143981
0.000169347
0.000199196
7.09968e-05
8.63494e-05
9.63532e-05
0.000103949
0.000110268
0.000114475
0.000116687
0.000117506
0.000117566
0.00011721
0.000116579
0.000115864
0.000115183
0.000114581
0.00011405
0.000113557
0.00011306
0.000112502
0.00011182
0.000110947
0.000109804
0.000108315
0.00010641
0.000104047
0.000101247
9.80593e-05
9.41946e-05
8.95461e-05
8.63617e-05
9.00059e-05
0.000102756
0.000122816
0.000147218
0.000170294
0.000197719
7.38032e-05
8.95379e-05
0.000100095
0.000108286
0.000115219
0.000119893
0.000122373
0.000123268
0.000123258
0.000122733
0.000121858
0.000120873
0.000119941
0.000119132
0.00011845
0.000117862
0.000117324
0.000116769
0.000116125
0.000115313
0.000114246
0.000112833
0.000110986
0.000108642
0.000105795
0.000102474
9.83172e-05
9.31135e-05
8.92971e-05
9.2665e-05
0.000105041
0.000124338
0.00014743
0.000170274
0.000197691
7.505e-05
9.19568e-05
0.00010331
0.000112174
0.000119749
0.000124939
0.000127742
0.000128761
0.000128716
0.000128043
0.000126918
0.000125637
0.000124412
0.000123348
0.000122465
0.000121738
0.000121122
0.000120546
0.000119924
0.000119164
0.000118166
0.000116823
0.000115026
0.000112681
0.000109753
0.000106243
0.000101727
9.59623e-05
9.16238e-05
9.45776e-05
0.000106312
0.000125023
0.000147695
0.000168593
0.000196276
7.78655e-05
9.53241e-05
0.000107235
0.000116674
0.000124752
0.000130189
0.00013304
0.000134009
0.000133855
0.000133022
0.000131677
0.000130147
0.000128682
0.000127416
0.000126385
0.000125572
0.000124935
0.000124398
0.000123868
0.000123247
0.000122423
0.000121274
0.000119671
0.000117492
0.000114663
0.000111158
0.000106494
0.000100321
9.54751e-05
9.78819e-05
0.00010885
0.000126369
0.000147654
0.00016914
0.000196031
7.84915e-05
9.69461e-05
0.000109722
0.00011998
0.000128796
0.000134717
0.000137822
0.000138867
0.000138689
0.00013776
0.000136264
0.000134537
0.000132858
0.000131388
0.000130182
0.000129237
0.000128522
0.000127961
0.000127456
0.000126902
0.00012618
0.000125154
0.000123672
0.000121584
0.000118776
0.00011518
0.000110247
0.000103622
9.83548e-05
0.000100424
0.000110705
0.000127032
0.00014644
0.000168645
0.000195763
8.06381e-05
9.98921e-05
0.000113314
0.000124185
0.000133593
0.000139931
0.000143223
0.000144282
0.000144024
0.000142955
0.000141274
0.000139326
0.000137416
0.00013573
0.000134343
0.000133271
0.000132488
0.000131923
0.000131479
0.000131049
0.000130504
0.000129695
0.000128448
0.000126584
0.000123948
0.000120437
0.000115433
0.000108418
0.000102562
0.000104125
0.000114019
0.000129445
0.000147448
0.000167265
0.000194904
8.08603e-05
0.000101228
0.000115672
0.000127449
0.000137702
0.000144726
0.000148451
0.000149714
0.000149502
0.000148357
0.000146503
0.000144314
0.000142134
0.000140178
0.000138545
0.000137273
0.000136346
0.000135695
0.000135217
0.000134797
0.0001343
0.000133562
0.000132389
0.000130573
0.000127931
0.000124324
0.000119058
0.000111601
0.000105615
0.000107361
0.00011728
0.000131891
0.000148312
0.000168075
0.000192423
8.17614e-05
0.000103875
0.000119343
0.000131898
0.000142868
0.000150406
0.000154474
0.000155894
0.000155673
0.000154383
0.000152249
0.000149707
0.000147155
0.00014485
0.00014292
0.000141419
0.000140342
0.000139623
0.000139155
0.000138823
0.000138478
0.000137945
0.00013701
0.000135439
0.000133013
0.000129578
0.000124437
0.000116833
0.000110086
0.000110877
0.000120285
0.000134525
0.000149963
0.000167027
0.000192119
8.17578e-05
0.000105518
0.000121971
0.000135333
0.000147095
0.000155371
0.00015999
0.000161755
0.000161677
0.000160367
0.00015805
0.000155199
0.000152278
0.0001496
0.000147332
0.000145543
0.000144247
0.000143381
0.000142838
0.000142493
0.00014219
0.000141732
0.000140884
0.000139377
0.000136963
0.000133472
0.00012821
0.000120359
0.000112814
0.000112796
0.000121587
0.000135519
0.000150582
0.00016716
0.000191626
8.31244e-05
0.000108383
0.000125638
0.000139575
0.000151889
0.000160629
0.000165605
0.000167572
0.000167529
0.000166117
0.000163597
0.000160456
0.000157208
0.000154211
0.000151663
0.000149653
0.000148204
0.000147258
0.000146705
0.000146419
0.000146233
0.000145938
0.000145279
0.000143954
0.000141673
0.000138242
0.000132953
0.000124901
0.000116884
0.000116416
0.000125123
0.000138847
0.000153617
0.000169132
0.000188271
8.45633e-05
0.000110579
0.000128467
0.00014304
0.000156038
0.000165446
0.000170941
0.000173195
0.000173236
0.000171774
0.000169114
0.000165751
0.000162241
0.000158975
0.000156179
0.000153953
0.00015233
0.000151249
0.000150601
0.000150259
0.000150054
0.000149777
0.000149174
0.000147941
0.000145778
0.000142467
0.00013739
0.000129514
0.000120596
0.000118049
0.000125771
0.00013935
0.0001538
0.000168812
0.000187707
8.58189e-05
0.000112869
0.000131297
0.000146264
0.000159692
0.000169616
0.000175594
0.000178192
0.000178402
0.000176973
0.000174232
0.000170696
0.000166965
0.000163469
0.000160463
0.000158069
0.000156328
0.000155187
0.000154539
0.000154252
0.000154142
0.000153989
0.000153523
0.000152433
0.0001504
0.000147178
0.000142192
0.000134308
0.000124747
0.000120663
0.000127398
0.000140633
0.00015583
0.000169273
0.00018759
8.76628e-05
0.000115844
0.000134758
0.000149967
0.000163628
0.000173807
0.000180016
0.000182771
0.000183044
0.000181578
0.000178714
0.000174984
0.000171021
0.00016729
0.000164067
0.000161491
0.000159611
0.000158376
0.000157684
0.000157402
0.000157325
0.000157215
0.000156768
0.000155636
0.000153455
0.000149937
0.000144423
0.000135699
0.000125416
0.000121419
0.000127992
0.00014068
0.000154219
0.000166597
0.000181967
8.96462e-05
0.00011875
0.000138065
0.000153443
0.000167196
0.000177444
0.000183731
0.000186578
0.000186934
0.000185518
0.000182681
0.00017892
0.000174881
0.000171047
0.000167715
0.000165039
0.000163078
0.000161796
0.000161099
0.000160859
0.000160878
0.000160925
0.000160705
0.000159851
0.000157972
0.000154735
0.000149528
0.000141017
0.00013013
0.000124946
0.000130805
0.000142384
0.000153658
0.000163135
0.000174556
9.20711e-05
0.000122267
0.000142167
0.000157801
0.000171604
0.000181769
0.000187896
0.000190573
0.000190771
0.000189204
0.00018624
0.000182354
0.000178189
0.000174233
0.000170785
0.000168001
0.00016594
0.000164562
0.000163774
0.000163458
0.000163429
0.000163473
0.000163316
0.000162602
0.000160941
0.00015798
0.000153244
0.000145418
0.000134277
0.00012658
0.000130377
0.000140539
0.000151203
0.000161224
0.000171551
9.42814e-05
0.000125801
0.000146365
0.000162334
0.000176311
0.000186516
0.00019256
0.000195092
0.000195147
0.000193467
0.000190417
0.000186445
0.000182203
0.000178171
0.000174644
0.000171779
0.000169632
0.000168169
0.000167303
0.000166914
0.000166832
0.00016685
0.000166701
0.000166053
0.000164523
0.000161768
0.000157436
0.000150272
0.00013927
0.000129384
0.000130453
0.000139851
0.000150861
0.000159685
0.000174039
9.70019e-05
0.000129767
0.000150975
0.000167324
0.000181539
0.000191821
0.000197824
0.000200257
0.000200184
0.000198358
0.000195129
0.000190961
0.000186498
0.000182227
0.000178456
0.000175364
0.000173013
0.000171379
0.000170376
0.00016988
0.000169709
0.000169634
0.000169368
0.00016855
0.000166763
0.000163675
0.000158908
0.000151166
0.000139643
0.000129487
0.00013021
0.000138976
0.000151019
0.000161851
0.0001762
0.000100388
0.000133336
0.000155081
0.000172058
0.000186857
0.0001975
0.000203586
0.000205924
0.000205685
0.000203649
0.00020019
0.000195766
0.000191038
0.000186513
0.000182509
0.000179217
0.000176692
0.000174907
0.000173777
0.00017318
0.000172932
0.000172786
0.000172413
0.000171402
0.000169326
0.000165863
0.000160579
0.000152076
0.000139857
0.000129887
0.000131243
0.000140509
0.000151132
0.000160324
0.000172062
0.000102772
0.000135455
0.000157722
0.000175438
0.000190987
0.000202123
0.000208388
0.000210663
0.000210271
0.000208046
0.000204382
0.000199761
0.000194845
0.000190138
0.000185965
0.000182516
0.000179838
0.000177904
0.000176628
0.000175888
0.000175502
0.000175232
0.000174778
0.000173756
0.000171719
0.000168298
0.000163008
0.000154369
0.000141647
0.000130545
0.000130752
0.000139117
0.000148605
0.000155165
0.000162768
0.00010617
0.000136438
0.000159191
0.000178139
0.000194749
0.000206471
0.000212881
0.000214968
0.000214301
0.000211765
0.000207763
0.000202836
0.000197666
0.000192765
0.000188482
0.000184993
0.000182334
0.000180464
0.000179279
0.000178641
0.000178362
0.000178209
0.000177902
0.0001771
0.000175401
0.000172412
0.000167732
0.000159889
0.000147274
0.000134445
0.000131213
0.000137654
0.000147612
0.000155357
0.000164213
0.000107396
0.000134645
0.000157984
0.0001787
0.000196352
0.000209092
0.000215731
0.000217441
0.000216358
0.000213335
0.000208835
0.000203519
0.000198116
0.000193153
0.000188966
0.000185675
0.000183283
0.00018172
0.000180856
0.000180523
0.000180507
0.000180547
0.000180341
0.000179529
0.000177708
0.000174495
0.000169398
0.000160887
0.00014778
0.000134541
0.000131035
0.000137322
0.000146529
0.00015598
0.00016962
0.000107168
0.000130824
0.000153104
0.000175262
0.000196257
0.000210559
0.000217393
0.000219089
0.000217819
0.000214439
0.000209504
0.000203935
0.000198465
0.000193516
0.000189421
0.000186311
0.00018417
0.000182896
0.000182328
0.000182295
0.000182567
0.000182871
0.000182877
0.000182215
0.000180444
0.000177156
0.000171799
0.000162723
0.000148941
0.000135455
0.000132085
0.000138247
0.000147323
0.000154779
0.000166279
0.000105146
0.000128467
0.000147897
0.000167275
0.000188495
0.000205782
0.000216391
0.000219835
0.000218856
0.000215259
0.000210106
0.000204451
0.000199043
0.000194227
0.000190213
0.000187183
0.000185101
0.000183939
0.000183551
0.000183742
0.000184271
0.000184842
0.000185097
0.000184631
0.000182987
0.000179733
0.000174288
0.000164798
0.000150019
0.000135753
0.000132212
0.000137913
0.000145507
0.000152009
0.000162401
0.000102454
0.000128813
0.000148103
0.000164365
0.000179463
0.00019294
0.000202877
0.000209256
0.000211792
0.000211162
0.00020812
0.000203699
0.000198938
0.000194551
0.000190791
0.000187999
0.00018617
0.000185224
0.000185038
0.000185467
0.000186279
0.00018717
0.000187755
0.000187592
0.000186172
0.000183029
0.000177523
0.000167745
0.000152375
0.000137489
0.000133526
0.000138297
0.000145322
0.000151146
0.00016101
0.000100499
0.000127967
0.000147524
0.000163872
0.000179741
0.000192366
0.00020097
0.000205923
0.000208062
0.000207853
0.000205783
0.000202405
0.000198478
0.000194619
0.00019122
0.000188691
0.000187043
0.000186267
0.000186271
0.000186932
0.00018805
0.00018933
0.000190361
0.000190602
0.000189456
0.000186315
0.000180522
0.000170069
0.000153437
0.000137212
0.000132771
0.000137089
0.000143657
0.000149336
0.000159014
0.000101631
0.000128932
0.000148601
0.000164904
0.000180061
0.00019253
0.000201212
0.000206051
0.000207887
0.000207571
0.000205612
0.000202438
0.000198823
0.000195337
0.000192354
0.000190082
0.000188604
0.000187943
0.000188036
0.000188803
0.00019008
0.000191595
0.000192956
0.000193629
0.000193002
0.000190476
0.000185555
0.000176456
0.000160784
0.000142833
0.00013476
0.000137825
0.000144101
0.000149908
0.000158224
0.000102631
0.000131433
0.000151458
0.000168002
0.000183514
0.000195921
0.000204321
0.000209044
0.000210928
0.000210726
0.000208886
0.000205799
0.000202136
0.000198437
0.00019511
0.000192436
0.000190552
0.000189518
0.000189326
0.00018991
0.000191118
0.000192688
0.000194229
0.000195186
0.000194898
0.000192728
0.000188213
0.00017965
0.000164371
0.000145795
0.000135669
0.000137225
0.00014275
0.000149173
0.000158133
0.0001047
0.00013628
0.000157369
0.000174172
0.000189582
0.000201745
0.000209875
0.000214304
0.000215919
0.000215474
0.000213396
0.000209991
0.000205938
0.000201827
0.000198094
0.00019505
0.000192841
0.000191536
0.000191138
0.000191596
0.000192784
0.000194447
0.000196189
0.000197432
0.000197452
0.000195598
0.000191354
0.000182992
0.000167854
0.00014917
0.000138123
0.000138429
0.00014368
0.000148294
0.000157241
0.000107448
0.000141263
0.000163196
0.000180327
0.000195889
0.000208127
0.000216171
0.000220352
0.000221597
0.000220761
0.000218272
0.000214434
0.000209929
0.000205349
0.000201121
0.000197576
0.000194894
0.000193176
0.000192436
0.000192628
0.000193614
0.0001951
0.000196677
0.000197789
0.000197759
0.00019592
0.000191813
0.000183778
0.000169121
0.000150323
0.000138269
0.000138297
0.000143046
0.000147861
0.000154032
0.000111263
0.000145402
0.000167719
0.00018531
0.00020148
0.000214299
0.000222607
0.000226688
0.000227604
0.00022632
0.000223168
0.000218613
0.000213387
0.000208125
0.000203326
0.00019935
0.000196377
0.000194485
0.000193661
0.000193842
0.000194875
0.000196464
0.000198184
0.000199432
0.000199517
0.000197835
0.000193915
0.000186497
0.00017317
0.000155208
0.000141303
0.000138985
0.000143033
0.000146949
0.00015509
0.000114527
0.000148826
0.000171441
0.000189403
0.000205999
0.000219154
0.000227649
0.000231737
0.000232481
0.00023085
0.000227243
0.000222206
0.00021654
0.00021092
0.000205845
0.000201663
0.000198525
0.00019648
0.000195495
0.000195496
0.000196311
0.000197637
0.000199068
0.000200048
0.000199907
0.000198157
0.000194088
0.000186716
0.000173585
0.000155941
0.000142262
0.000139326
0.000143122
0.000148115
0.000163327
0.000119096
0.000153271
0.000176223
0.00019459
0.000211476
0.000224692
0.000232976
0.000236749
0.000237175
0.000235224
0.000231293
0.00022588
0.0002198
0.000213775
0.000208331
0.00020384
0.000200468
0.000198274
0.000197227
0.000197232
0.000198083
0.00019944
0.000200838
0.000201647
0.000201143
0.00019869
0.000194144
0.000185713
0.000170968
0.000153771
0.000142782
0.000141999
0.000146289
0.000153034
0.000163856
0.000121544
0.000155543
0.000179404
0.00019876
0.000216363
0.000229866
0.000237973
0.000241267
0.000241121
0.000238638
0.000234328
0.000228543
0.000222136
0.000215843
0.000210193
0.000205556
0.000202082
0.000199814
0.000198704
0.000198642
0.000199409
0.000200662
0.000201898
0.00020243
0.000201507
0.000198584
0.000193261
0.000183621
0.000167138
0.000148635
0.00013997
0.000141448
0.000146069
0.000150009
0.000153235
0.000122513
0.000157417
0.000181887
0.000201717
0.000219743
0.000233544
0.000241902
0.000245426
0.000245367
0.000242832
0.000238342
0.000232306
0.000225628
0.000219063
0.000213143
0.00020825
0.00020454
0.00020206
0.000200762
0.000200536
0.000201167
0.000202354
0.000203618
0.000204317
0.000203705
0.000201252
0.000196318
0.000186982
0.000170688
0.000151243
0.000140398
0.000140981
0.000144533
0.000145786
0.000146056
0.000125402
0.000160492
0.000185317
0.000205573
0.00022362
0.000237214
0.000245458
0.000248833
0.000248542
0.000245724
0.000240891
0.000234495
0.000227483
0.000220659
0.000214589
0.000209652
0.000205999
0.000203632
0.000202454
0.000202308
0.000202945
0.000204056
0.000205176
0.000205748
0.000205118
0.00020273
0.00019799
0.000189087
0.000173442
0.000153598
0.000139899
0.000138595
0.00014172
0.000143938
0.000148064
0.000126595
0.000162281
0.000187754
0.000208695
0.000227708
0.000241826
0.000249865
0.000252686
0.000251662
0.000248107
0.000242737
0.000235962
0.000228761
0.000221934
0.000216043
0.000211407
0.000208107
0.000206098
0.000205257
0.000205413
0.000206324
0.000207645
0.000208925
0.000209589
0.000208962
0.000206415
0.000201433
0.000192146
0.000175826
0.000155409
0.00014108
0.000138668
0.00014144
0.000144281
0.000150064
0.000127636
0.000165269
0.000191878
0.000213301
0.000232682
0.000247344
0.00025572
0.000258202
0.000256659
0.000252578
0.000246698
0.000239658
0.000232384
0.000225541
0.000219574
0.000214788
0.000211287
0.000209079
0.000208101
0.000208188
0.000209094
0.000210458
0.000211811
0.00021255
0.000211967
0.000209334
0.000204102
0.000194327
0.000177033
0.000155447
0.000140561
0.00013809
0.000140621
0.00014306
0.000147609
0.000127411
0.000167519
0.00019535
0.000217452
0.000236903
0.000250836
0.000258557
0.000261247
0.000260468
0.000257167
0.000251858
0.000244994
0.000237531
0.000230283
0.000223837
0.000218587
0.000214712
0.000212243
0.00021113
0.000211195
0.000212193
0.000213759
0.000215385
0.000216427
0.000216156
0.000213747
0.000208578
0.000198523
0.000180254
0.000157458
0.000141417
0.000138168
0.000139886
0.000141277
0.000144356
0.000128296
0.000171558
0.000201367
0.000225086
0.000246088
0.000261252
0.000269352
0.000271516
0.000269777
0.000265477
0.000259189
0.000251406
0.000243102
0.000235106
0.000228012
0.000222229
0.000217915
0.000215111
0.000213758
0.000213712
0.000214701
0.000216327
0.00021803
0.000219083
0.000218653
0.000215944
0.000210413
0.000200046
0.000181465
0.000157958
0.000140984
0.000137194
0.00013842
0.000139625
0.000143217
0.000129517
0.000173752
0.000204408
0.000229154
0.000251482
0.000267909
0.000276791
0.000278959
0.000276613
0.000271634
0.000264632
0.000256097
0.000247089
0.00023846
0.000230817
0.000224562
0.000219884
0.000216844
0.000215385
0.000215364
0.000216505
0.000218388
0.000220406
0.000221744
0.000221496
0.000218843
0.000213233
0.000202517
0.000183158
0.000158519
0.000140757
0.00013669
0.000137482
0.000137707
0.000138893
0.000134209
0.000177757
0.000208023
0.000232597
0.000255437
0.000272973
0.000282889
0.000285781
0.000283893
0.000278664
0.000270908
0.000261573
0.00025188
0.000242623
0.000234373
0.000227556
0.00022237
0.00021889
0.000217067
0.000216774
0.000217749
0.000219594
0.000221705
0.000223284
0.000223395
0.000221386
0.000216471
0.00020662
0.000188399
0.00016304
0.000141865
0.00013559
0.000135048
0.000134973
0.000136705
0.000136037
0.00017949
0.000211113
0.000236613
0.000259682
0.000276529
0.000285473
0.000288008
0.000286243
0.00028126
0.000273712
0.00026438
0.000254483
0.000245005
0.000236552
0.00022956
0.000224255
0.000220708
0.000218868
0.000218602
0.000219634
0.000221551
0.000223742
0.00022543
0.000225728
0.000223959
0.000219379
0.00021003
0.000192643
0.000167942
0.000145585
0.000136609
0.000134825
0.000134434
0.00013438
0.000136698
0.000180677
0.000212858
0.000239539
0.000263485
0.000280603
0.000289642
0.000292072
0.000290149
0.000285057
0.000277462
0.000268109
0.000258148
0.000248468
0.000239758
0.000232492
0.00022695
0.000223212
0.000221226
0.00022085
0.0002218
0.000223647
0.000225775
0.000227366
0.000227503
0.000225471
0.000220672
0.000211344
0.000194183
0.000169232
0.000146218
0.00013679
0.000134582
0.000133145
0.0001349
0.000135413
0.000180938
0.00021441
0.000242098
0.000266665
0.000284085
0.000293169
0.000295667
0.00029397
0.000289263
0.000282022
0.000272777
0.000262598
0.00025252
0.000243352
0.000235661
0.000229786
0.000225838
0.000223772
0.000223431
0.000224499
0.000226541
0.000228889
0.000230686
0.000230978
0.000229048
0.000224303
0.000214771
0.000196632
0.0001715
0.000148779
0.000138908
0.000135708
0.000134675
0.000135293
0.000136365
0.000181329
0.000215265
0.000244183
0.00027085
0.000290398
0.000299821
0.000301789
0.000299494
0.000293991
0.000285901
0.000275794
0.000264832
0.000254126
0.000244526
0.000236606
0.000230688
0.00022684
0.000224971
0.000224887
0.000226229
0.00022849
0.000230972
0.000232769
0.000232913
0.000230671
0.000225508
0.000215021
0.000195604
0.000168924
0.000145216
0.000136891
0.000134308
0.000132149
0.000131092
0.000139075
0.000179438
0.000211443
0.000241756
0.000270615
0.0002916
0.000303385
0.00030731
0.000304877
0.000298792
0.000289989
0.00027914
0.000267599
0.000256503
0.000246676
0.000238654
0.000232713
0.000228893
0.000227085
0.000227079
0.000228523
0.000230911
0.000233567
0.000235563
0.000235874
0.000233749
0.000228181
0.000217505
0.000198389
0.000172571
0.000149284
0.00013835
0.000134476
0.000131917
0.000130988
0.000133888
0.000173318
0.000205766
0.00023581
0.000265219
0.00028872
0.000303418
0.000309338
0.00030872
0.00030321
0.000294206
0.000282948
0.000270999
0.000259448
0.000249166
0.000240737
0.000234466
0.000230418
0.000228491
0.000228443
0.000229891
0.000232274
0.000234855
0.000236678
0.000236714
0.000234144
0.000228301
0.000216826
0.000196146
0.000168888
0.000145865
0.000137032
0.000133757
0.000131473
0.000130079
0.000130541
0.000172625
0.000205448
0.000235399
0.00026469
0.000287991
0.000302809
0.000309376
0.000309387
0.000304629
0.00029628
0.000285244
0.000273046
0.000261036
0.000250353
0.000241642
0.000235158
0.000230954
0.000228994
0.000228984
0.000230589
0.000233261
0.000236245
0.000238532
0.000238981
0.000236672
0.000230806
0.000218962
0.000197396
0.000168926
0.000145018
0.000135627
0.000132298
0.00012819
0.000122009
0.000129686
0.000172286
0.000204789
0.000234401
0.000264118
0.00028837
0.000303642
0.000310372
0.000310568
0.000305933
0.000297592
0.000286579
0.000274475
0.00026257
0.000251799
0.000242932
0.000236319
0.000231937
0.000229695
0.00022942
0.000230798
0.000233342
0.000236372
0.000239014
0.000240175
0.000238952
0.000234643
0.000225421
0.000207301
0.000178756
0.000149871
0.00013524
0.000128596
0.000123169
0.000117285
0.000128848
0.000173037
0.000205402
0.000232901
0.00026119
0.000284735
0.000299174
0.000305528
0.000306111
0.000302294
0.000294957
0.00028496
0.000273746
0.000262657
0.000252335
0.000243558
0.000236909
0.000232443
0.00023007
0.000229668
0.000230972
0.000233519
0.000236547
0.000239325
0.000240781
0.00023993
0.000236049
0.000227302
0.000209779
0.000182101
0.000152873
0.000136084
0.000127953
0.000122316
0.000117451
0.000128472
0.000172514
0.000204721
0.000233236
0.000260707
0.000283158
0.000296973
0.000302455
0.000302966
0.000299638
0.000293067
0.000283853
0.00027327
0.000262528
0.000252523
0.000244106
0.000237523
0.000233006
0.000230526
0.00023001
0.00023123
0.000233787
0.000236967
0.000240023
0.000241871
0.000241481
0.000238138
0.000230062
0.000213284
0.000185633
0.000154772
0.000135798
0.00012658
0.000120507
0.0001156
0.000128923
0.000174441
0.000206231
0.000233366
0.000260873
0.000283233
0.000297515
0.000303466
0.000303781
0.000300231
0.000293562
0.000284419
0.000273831
0.000262965
0.000253012
0.000244631
0.000238075
0.0002336
0.000231198
0.000230775
0.000232069
0.000234706
0.000238046
0.000241195
0.000243098
0.000242824
0.000239912
0.000232779
0.000218036
0.000192664
0.000161679
0.000138901
0.00012683
0.000120808
0.00011591
0.000130855
0.00017789
0.000209674
0.000235829
0.000261153
0.000282492
0.000297115
0.000304556
0.000305557
0.000301567
0.000293942
0.000284671
0.000274288
0.000263674
0.000253859
0.000245467
0.000238914
0.000234393
0.000231934
0.000231453
0.000232658
0.000235251
0.000238539
0.000241645
0.000243568
0.000243279
0.000240345
0.000233247
0.0002188
0.000194777
0.000165812
0.000142438
0.000127989
0.000121193
0.000119504
0.000134505
0.000184953
0.000217079
0.0002416
0.000263718
0.000281624
0.000293298
0.000299914
0.000301482
0.000298935
0.000293206
0.000284811
0.000274349
0.000263909
0.000254269
0.000246032
0.000239669
0.000235358
0.000233127
0.000232883
0.000234303
0.000237008
0.000240241
0.000243059
0.000244413
0.000243703
0.000240342
0.000232782
0.000217839
0.000194182
0.000167249
0.000146911
0.000133962
0.000127949
0.000126076
0.00013776
0.000191324
0.00022483
0.000249613
0.00027081
0.000286436
0.000296043
0.000300559
0.000301329
0.000298634
0.000292947
0.000284698
0.000274773
0.000264593
0.000255117
0.000247011
0.000240808
0.000236592
0.000234373
0.000234052
0.000235329
0.000237843
0.000240838
0.000243375
0.000244388
0.00024308
0.000238728
0.000229649
0.000212447
0.000186764
0.000160377
0.000144526
0.000134515
0.000127952
0.000123517