/*--------------------------------*- C++ -*----------------------------------*\
| =========                 |                                                 |
| \\      /  F ield         | OpenFOAM: The Open Source CFD Toolbox           |
|  \\    /   O peration     | Version:  2.0.x                                 |
|   \\  /    A nd           | Web:      www.OpenFOAM.org                      |
|    \\/     M anipulation  |                                                 |
\*---------------------------------------------------------------------------*/
FoamFile
{
    version     2.0;
    format      ascii;
    class       volScalarField;
    location    "50";
    object      mut;
}
// * * * * * * * * * * * * * * * * * * * * * * * * * * * * * * * * * * * * * //

dimensions      [1 -1 -1 0 0 0 0];

internalField   nonuniform List<scalar> 
78750
(
4.85756e-07
6.44597e-06
1.03336e-05
8.04047e-06
9.9731e-06
8.41646e-06
9.06493e-06
9.03233e-06
7.47315e-06
6.48932e-06
5.44401e-06
4.48362e-06
4.02382e-06
4.19294e-06
4.77409e-06
5.3598e-06
5.90123e-06
6.38855e-06
6.90714e-06
7.63233e-06
8.67103e-06
1.00116e-05
1.15303e-05
1.14908e-05
1.14249e-05
1.14072e-05
1.14395e-05
1.15643e-05
1.16108e-05
1.14463e-05
9.04898e-06
5.99389e-06
3.59723e-06
2.32002e-06
1.52014e-08
3.17913e-08
3.49809e-06
1.9133e-06
2.58285e-06
3.70829e-06
5.47112e-06
7.38903e-06
1.09951e-05
9.8047e-06
1.04518e-05
1.11512e-05
8.53623e-06
9.3153e-06
7.82668e-06
6.67221e-06
6.2373e-06
6.12313e-06
6.05325e-06
6.50114e-06
7.18715e-06
7.94117e-06
1.0044e-05
1.04798e-05
1.06235e-05
1.07916e-05
1.09534e-05
1.10953e-05
1.12363e-05
1.13931e-05
1.16016e-05
6.59506e-06
3.12398e-06
1.95271e-06
3.05593e-06
7.85469e-08
3.5935e-08
2.52463e-06
5.68215e-06
3.09141e-06
2.58989e-06
2.73896e-06
3.29059e-06
5.96948e-06
1.09281e-05
1.06279e-05
1.04133e-05
1.02761e-05
1.01432e-05
9.69738e-06
1.01326e-05
1.01355e-05
1.01386e-05
1.01591e-05
1.0205e-05
1.02764e-05
1.03853e-05
1.05229e-05
1.06691e-05
1.08111e-05
1.09696e-05
1.11651e-05
1.13663e-05
1.15493e-05
1.17131e-05
6.77991e-06
3.44857e-06
2.01926e-06
1.87917e-06
6.38933e-06
1.28682e-07
3.60387e-08
2.25148e-06
7.5103e-06
5.46542e-06
4.31075e-06
3.9757e-06
3.71924e-06
3.82638e-06
5.472e-06
1.04196e-05
1.13875e-05
1.08703e-05
1.04211e-05
1.00405e-05
9.7473e-06
9.55683e-06
9.44472e-06
9.41245e-06
9.44043e-06
9.56504e-06
9.77663e-06
1.00465e-05
1.03494e-05
1.06754e-05
1.10089e-05
1.1326e-05
1.15982e-05
1.17964e-05
7.73955e-06
4.1262e-06
2.30874e-06
1.66002e-06
2.16256e-06
9.82978e-06
1.7042e-07
4.52397e-08
2.60244e-06
9.28239e-06
5.44156e-06
4.4749e-06
4.69745e-06
5.22926e-06
5.88674e-06
6.94981e-06
8.94202e-06
1.11649e-05
1.07098e-05
1.03806e-05
1.01823e-05
1.01007e-05
1.01044e-05
1.019e-05
1.03662e-05
1.06161e-05
1.0923e-05
1.12663e-05
1.16263e-05
1.19857e-05
1.23272e-05
1.26224e-05
1.28418e-05
1.2982e-05
1.07644e-05
6.06536e-06
3.15738e-06
1.91992e-06
1.6305e-06
2.61296e-06
9.27465e-06
1.99455e-07
4.8319e-08
2.79453e-06
9.52939e-06
5.42517e-06
4.60658e-06
4.87901e-06
5.77046e-06
7.42499e-06
1.01307e-05
1.34491e-05
1.30116e-05
1.26746e-05
1.24528e-05
1.23491e-05
1.23397e-05
1.24053e-05
1.25411e-05
1.27249e-05
1.2936e-05
1.31553e-05
1.33653e-05
1.3551e-05
1.37011e-05
1.38071e-05
1.38658e-05
1.38451e-05
1.35312e-05
8.18302e-06
4.5573e-06
2.50389e-06
1.77896e-06
1.79857e-06
3.3009e-06
7.7453e-06
2.17162e-07
5.01145e-08
3.02398e-06
9.82223e-06
5.74894e-06
5.14375e-06
5.77726e-06
7.36197e-06
1.01674e-05
1.42875e-05
1.54654e-05
1.51006e-05
1.48038e-05
1.45836e-05
1.44407e-05
1.4371e-05
1.43531e-05
1.43656e-05
1.4406e-05
1.44587e-05
1.45106e-05
1.45553e-05
1.45522e-05
1.44836e-05
1.43751e-05
1.42274e-05
1.40455e-05
1.102e-05
6.22183e-06
3.68964e-06
2.24783e-06
1.74649e-06
1.9412e-06
3.81311e-06
7.31917e-06
2.25437e-07
5.33604e-08
3.11421e-06
9.67262e-06
5.94814e-06
5.54023e-06
6.45354e-06
8.54011e-06
1.22551e-05
1.7688e-05
1.74668e-05
1.71455e-05
1.68641e-05
1.66308e-05
1.64461e-05
1.63064e-05
1.62034e-05
1.61242e-05
1.60565e-05
1.59875e-05
1.59041e-05
1.57951e-05
1.56536e-05
1.54737e-05
1.52538e-05
1.49935e-05
1.47025e-05
9.39021e-06
4.96331e-06
3.08e-06
2.05466e-06
1.78821e-06
2.22615e-06
4.58911e-06
6.71323e-06
2.26044e-07
5.68862e-08
3.17761e-06
9.76069e-06
6.29556e-06
6.00992e-06
7.26152e-06
1.00322e-05
1.46107e-05
1.97049e-05
1.947e-05
1.92333e-05
1.90083e-05
1.88047e-05
1.86248e-05
1.84669e-05
1.83275e-05
1.81997e-05
1.80755e-05
1.79454e-05
1.77988e-05
1.76248e-05
1.7415e-05
1.71638e-05
1.68651e-05
1.65169e-05
1.61305e-05
9.16602e-06
4.5329e-06
3.00207e-06
2.09391e-06
1.82571e-06
2.34837e-06
4.91423e-06
6.77148e-06
2.28695e-07
6.05344e-08
3.17758e-06
9.92224e-06
6.6741e-06
6.40824e-06
7.77628e-06
1.08514e-05
1.59511e-05
2.12448e-05
2.10962e-05
2.09354e-05
2.07763e-05
2.06267e-05
2.04882e-05
2.03588e-05
2.02355e-05
2.01131e-05
1.99856e-05
1.98449e-05
1.96812e-05
1.94846e-05
1.92476e-05
1.89648e-05
1.86304e-05
1.82442e-05
1.69286e-05
9.23147e-06
4.51189e-06
2.98497e-06
2.07375e-06
1.80584e-06
2.31367e-06
4.54832e-06
6.79925e-06
2.35939e-07
6.52477e-08
3.2236e-06
1.02037e-05
6.98023e-06
6.79772e-06
8.40869e-06
1.18992e-05
1.75128e-05
2.26457e-05
2.25593e-05
2.24512e-05
2.23364e-05
2.22233e-05
2.21137e-05
2.2006e-05
2.18971e-05
2.17824e-05
2.16544e-05
2.15044e-05
2.13226e-05
2.10989e-05
2.08248e-05
2.04949e-05
2.0106e-05
1.96619e-05
1.84447e-05
9.39101e-06
4.37104e-06
2.75926e-06
1.98009e-06
1.76442e-06
2.36722e-06
5.78899e-06
6.02473e-06
2.30732e-07
6.96941e-08
3.2613e-06
1.05008e-05
7.29863e-06
7.22315e-06
9.01399e-06
1.27528e-05
1.87576e-05
2.3865e-05
2.38168e-05
2.37404e-05
2.36534e-05
2.35648e-05
2.34763e-05
2.33853e-05
2.32879e-05
2.31788e-05
2.30501e-05
2.28926e-05
2.26962e-05
2.24505e-05
2.21467e-05
2.17791e-05
2.13461e-05
2.08551e-05
1.87592e-05
9.18596e-06
4.2819e-06
2.65686e-06
2.03692e-06
1.97985e-06
2.69341e-06
5.99544e-06
6.37408e-06
2.26273e-07
7.4068e-08
3.31837e-06
1.08518e-05
7.72078e-06
7.66875e-06
9.48789e-06
1.33707e-05
1.98774e-05
2.50245e-05
2.49884e-05
2.49216e-05
2.48442e-05
2.47667e-05
2.46911e-05
2.46139e-05
2.45298e-05
2.44323e-05
2.43129e-05
2.4162e-05
2.39686e-05
2.37219e-05
2.34118e-05
2.30311e-05
2.25774e-05
2.20586e-05
2.00938e-05
9.7274e-06
4.42073e-06
2.66752e-06
2.08084e-06
2.06599e-06
2.8127e-06
6.35432e-06
6.29577e-06
2.20288e-07
7.77693e-08
3.36399e-06
1.11296e-05
8.08214e-06
8.00208e-06
9.87783e-06
1.39329e-05
2.08334e-05
2.61158e-05
2.60752e-05
2.59989e-05
2.59119e-05
2.5828e-05
2.57501e-05
2.56742e-05
2.55935e-05
2.54996e-05
2.53832e-05
2.52336e-05
2.50394e-05
2.47882e-05
2.44679e-05
2.4068e-05
2.35846e-05
2.3025e-05
2.08415e-05
1.00918e-05
4.5623e-06
2.67811e-06
2.14256e-06
2.20482e-06
2.87893e-06
6.25362e-06
6.11852e-06
2.12588e-07
8.107e-08
3.4289e-06
1.14781e-05
8.58065e-06
8.42915e-06
1.02497e-05
1.43068e-05
2.14209e-05
2.723e-05
2.71694e-05
2.70682e-05
2.69566e-05
2.68523e-05
2.67602e-05
2.66765e-05
2.65939e-05
2.65037e-05
2.63954e-05
2.62574e-05
2.60772e-05
2.58407e-05
2.55334e-05
2.51423e-05
2.466e-05
2.40907e-05
2.16804e-05
1.09946e-05
4.90368e-06
2.78204e-06
2.14986e-06
2.17264e-06
2.9214e-06
6.54282e-06
6.01112e-06
2.07334e-07
8.36608e-08
3.48701e-06
1.17932e-05
9.02489e-06
8.82993e-06
1.06445e-05
1.47841e-05
2.21829e-05
2.83734e-05
2.82834e-05
2.81417e-05
2.79858e-05
2.7839e-05
2.771e-05
2.75967e-05
2.74921e-05
2.73873e-05
2.72707e-05
2.7129e-05
2.69478e-05
2.67109e-05
2.64012e-05
2.60031e-05
2.55061e-05
2.4912e-05
2.15247e-05
1.09763e-05
4.96259e-06
2.82054e-06
2.20585e-06
2.22002e-06
2.97311e-06
6.6374e-06
6.09629e-06
2.05804e-07
8.69652e-08
3.49902e-06
1.20945e-05
9.185e-06
9.06481e-06
1.09775e-05
1.51952e-05
2.27845e-05
2.95213e-05
2.93983e-05
2.92092e-05
2.90007e-05
2.88048e-05
2.86351e-05
2.84921e-05
2.83691e-05
2.82567e-05
2.81417e-05
2.80087e-05
2.78416e-05
2.76221e-05
2.73309e-05
2.69486e-05
2.64601e-05
2.58615e-05
2.21168e-05
1.08497e-05
4.88658e-06
2.83119e-06
2.25094e-06
2.2763e-06
2.98455e-06
6.64314e-06
5.93453e-06
2.05771e-07
8.84329e-08
3.58102e-06
1.24594e-05
9.70901e-06
9.62898e-06
1.15541e-05
1.58318e-05
2.38285e-05
3.06047e-05
3.04537e-05
3.02175e-05
2.99529e-05
2.9701e-05
2.94823e-05
2.93006e-05
2.91507e-05
2.90239e-05
2.89055e-05
2.8778e-05
2.86227e-05
2.84189e-05
2.81443e-05
2.77752e-05
2.72908e-05
2.66805e-05
2.27182e-05
1.09001e-05
4.9e-06
2.82357e-06
2.26846e-06
2.35737e-06
3.07e-06
6.81199e-06
5.89374e-06
2.04275e-07
9.17491e-08
3.52235e-06
1.26729e-05
9.5776e-06
9.19195e-06
1.13145e-05
1.62417e-05
2.50502e-05
3.16122e-05
3.14312e-05
3.11547e-05
3.08443e-05
3.0548e-05
3.02917e-05
3.00826e-05
2.99171e-05
2.97871e-05
2.96772e-05
2.9569e-05
2.94426e-05
2.92751e-05
2.90416e-05
2.87147e-05
2.8268e-05
2.76837e-05
2.35971e-05
1.10527e-05
5.00961e-06
2.90139e-06
2.32552e-06
2.39255e-06
3.12575e-06
6.99755e-06
5.8978e-06
2.04015e-07
9.24825e-08
3.61408e-06
1.28213e-05
9.96306e-06
9.63474e-06
1.18982e-05
1.71085e-05
2.61482e-05
3.25507e-05
3.23536e-05
3.20512e-05
3.17061e-05
3.13715e-05
3.10779e-05
3.08364e-05
3.06465e-05
3.0502e-05
3.03882e-05
3.02856e-05
3.01733e-05
3.00269e-05
2.98192e-05
2.9519e-05
2.90939e-05
2.85187e-05
2.41084e-05
1.11092e-05
5.04488e-06
2.93937e-06
2.36112e-06
2.43289e-06
3.20364e-06
7.09119e-06
5.87324e-06
2.03732e-07
9.50081e-08
3.64207e-06
1.30572e-05
1.02113e-05
9.77902e-06
1.19384e-05
1.7281e-05
2.64993e-05
3.35765e-05
3.33546e-05
3.30205e-05
3.26369e-05
3.22614e-05
3.19291e-05
3.16546e-05
3.14416e-05
3.12852e-05
3.11713e-05
3.10813e-05
3.09938e-05
3.08831e-05
3.07193e-05
3.04675e-05
3.00904e-05
2.95542e-05
2.56156e-05
1.15668e-05
5.19547e-06
3.01999e-06
2.42675e-06
2.5017e-06
3.27843e-06
7.44597e-06
5.8399e-06
2.02842e-07
9.52644e-08
3.69276e-06
1.3335e-05
1.03081e-05
1.01914e-05
1.29639e-05
1.84947e-05
2.80527e-05
3.46179e-05
3.43843e-05
3.4021e-05
3.35959e-05
3.31726e-05
3.27918e-05
3.24727e-05
3.2223e-05
3.20399e-05
3.19104e-05
3.18142e-05
3.17292e-05
3.16284e-05
3.14794e-05
3.12435e-05
3.08785e-05
3.03451e-05
2.5982e-05
1.14192e-05
5.16841e-06
3.03345e-06
2.40536e-06
2.52263e-06
3.66091e-06
8.65435e-06
6.09634e-06
2.00262e-07
9.63231e-08
3.75882e-06
1.37538e-05
1.08984e-05
1.0596e-05
1.3238e-05
1.92774e-05
2.93007e-05
3.57746e-05
3.55171e-05
3.51062e-05
3.46199e-05
3.41311e-05
3.36879e-05
3.33151e-05
3.30236e-05
3.28131e-05
3.26713e-05
3.25779e-05
3.251e-05
3.24392e-05
3.23306e-05
3.21426e-05
3.18282e-05
3.13422e-05
2.78892e-05
1.24171e-05
5.5021e-06
3.17966e-06
2.54842e-06
2.64903e-06
3.55637e-06
7.96574e-06
6.13731e-06
1.99954e-07
9.63179e-08
3.86298e-06
1.40621e-05
1.12479e-05
1.12529e-05
1.45277e-05
2.08531e-05
3.12411e-05
3.68845e-05
3.66263e-05
3.6187e-05
3.56496e-05
3.50977e-05
3.45895e-05
3.41568e-05
3.38136e-05
3.35634e-05
3.33948e-05
3.32875e-05
3.32178e-05
3.31551e-05
3.30617e-05
3.28915e-05
3.2592e-05
3.21124e-05
2.94124e-05
1.30655e-05
5.69082e-06
3.24135e-06
2.57398e-06
2.66298e-06
3.5708e-06
7.99872e-06
6.2044e-06
1.99442e-07
9.7926e-08
3.96299e-06
1.43436e-05
1.17113e-05
1.20599e-05
1.53928e-05
2.1644e-05
3.17572e-05
3.79521e-05
3.76786e-05
3.72078e-05
3.66238e-05
3.60181e-05
3.54561e-05
3.49755e-05
3.45938e-05
3.4317e-05
3.41344e-05
3.4026e-05
3.39673e-05
3.39267e-05
3.38641e-05
3.37302e-05
3.34666e-05
3.30157e-05
3.07781e-05
1.37618e-05
5.92214e-06
3.32224e-06
2.61769e-06
2.72053e-06
3.67908e-06
8.2924e-06
6.37614e-06
1.95954e-07
9.96194e-08
4.05139e-06
1.44636e-05
1.23165e-05
1.28667e-05
1.59241e-05
2.19185e-05
3.1667e-05
3.89761e-05
3.86979e-05
3.82084e-05
3.75917e-05
3.69454e-05
3.63405e-05
3.5819e-05
3.54013e-05
3.50946e-05
3.48885e-05
3.4763e-05
3.46943e-05
3.46504e-05
3.45917e-05
3.44694e-05
3.42256e-05
3.38013e-05
3.28741e-05
1.61543e-05
6.75688e-06
3.55904e-06
2.65233e-06
2.67289e-06
3.53795e-06
7.65388e-06
6.65254e-06
1.95387e-07
1.01096e-07
4.1409e-06
1.46943e-05
1.30438e-05
1.34775e-05
1.65118e-05
2.24693e-05
3.21128e-05
3.98916e-05
3.96219e-05
3.91234e-05
3.84828e-05
3.78036e-05
3.7163e-05
3.66083e-05
3.61636e-05
3.58379e-05
3.56225e-05
3.54982e-05
3.54403e-05
3.54145e-05
3.53792e-05
3.52836e-05
3.50685e-05
3.46725e-05
3.40448e-05
1.77872e-05
7.27123e-06
3.68307e-06
2.64673e-06
2.63072e-06
3.52164e-06
7.74126e-06
6.71855e-06
1.95264e-07
1.03266e-07
4.19961e-06
1.50807e-05
1.34942e-05
1.38586e-05
1.68905e-05
2.29252e-05
3.27476e-05
4.07026e-05
4.04291e-05
3.99144e-05
3.92459e-05
3.85323e-05
3.78555e-05
3.72666e-05
3.67926e-05
3.64442e-05
3.62133e-05
3.60816e-05
3.60251e-05
3.60051e-05
3.59774e-05
3.5885e-05
3.56622e-05
3.52392e-05
3.45577e-05
1.76611e-05
7.01902e-06
3.65854e-06
2.66714e-06
2.64744e-06
3.58169e-06
8.11531e-06
6.6183e-06
1.89396e-07
1.056e-07
4.23211e-06
1.52829e-05
1.37078e-05
1.40441e-05
1.70945e-05
2.32295e-05
3.32356e-05
4.13789e-05
4.11158e-05
4.06098e-05
3.99415e-05
3.92204e-05
3.8531e-05
3.79273e-05
3.7439e-05
3.70785e-05
3.68407e-05
3.6709e-05
3.66603e-05
3.66578e-05
3.66589e-05
3.66086e-05
3.64391e-05
3.60759e-05
3.54535e-05
1.95628e-05
7.63708e-06
3.91818e-06
2.75753e-06
2.68125e-06
3.56533e-06
7.73915e-06
6.76879e-06
1.81701e-07
1.08455e-07
4.25232e-06
1.54097e-05
1.40811e-05
1.43486e-05
1.72154e-05
2.29837e-05
3.23977e-05
4.20523e-05
4.17635e-05
4.1238e-05
4.05517e-05
3.98128e-05
3.91058e-05
3.84846e-05
3.79794e-05
3.76022e-05
3.73478e-05
3.71996e-05
3.71366e-05
3.71247e-05
3.71247e-05
3.70861e-05
3.69428e-05
3.66225e-05
3.60569e-05
2.29716e-05
9.09817e-06
4.29468e-06
2.77155e-06
2.60699e-06
3.39879e-06
6.90801e-06
7.18375e-06
1.78593e-07
1.11056e-07
4.30153e-06
1.56708e-05
1.44131e-05
1.46827e-05
1.75807e-05
2.32298e-05
3.22633e-05
4.28165e-05
4.25103e-05
4.19737e-05
4.12776e-05
4.05302e-05
3.98148e-05
3.91838e-05
3.86671e-05
3.82768e-05
3.80083e-05
3.78467e-05
3.77707e-05
3.77495e-05
3.7745e-05
3.77084e-05
3.75789e-05
3.72858e-05
3.67632e-05
2.61072e-05
1.07483e-05
4.6916e-06
2.91042e-06
2.5636e-06
3.09584e-06
6.2297e-06
7.36335e-06
1.81194e-07
1.14259e-07
4.34104e-06
1.61013e-05
1.48792e-05
1.50391e-05
1.79903e-05
2.38778e-05
3.33126e-05
4.36858e-05
4.33571e-05
4.27944e-05
4.20701e-05
4.12902e-05
4.05382e-05
3.98685e-05
3.9315e-05
3.88907e-05
3.8593e-05
3.84075e-05
3.83122e-05
3.82747e-05
3.8253e-05
3.81949e-05
3.80341e-05
3.76944e-05
3.71116e-05
2.59177e-05
1.0583e-05
4.68781e-06
2.90913e-06
2.56836e-06
3.06941e-06
6.07446e-06
7.54833e-06
1.83442e-07
1.18244e-07
4.33804e-06
1.62716e-05
1.52534e-05
1.52878e-05
1.81467e-05
2.41107e-05
3.38758e-05
4.46098e-05
4.42506e-05
4.36553e-05
4.28949e-05
4.20775e-05
4.12885e-05
4.05843e-05
4.00006e-05
3.95491e-05
3.92273e-05
3.90209e-05
3.89084e-05
3.88572e-05
3.88225e-05
3.8745e-05
3.85499e-05
3.81589e-05
3.75093e-05
2.54036e-05
1.0028e-05
4.51988e-06
2.83561e-06
2.54442e-06
3.21006e-06
6.73764e-06
7.459e-06
1.79116e-07
1.21054e-07
4.25879e-06
1.5879e-05
1.52349e-05
1.51265e-05
1.78181e-05
2.36493e-05
3.33892e-05
4.53616e-05
4.49745e-05
4.43503e-05
4.35632e-05
4.27205e-05
4.19067e-05
4.1179e-05
4.05729e-05
4.00986e-05
3.97537e-05
3.95238e-05
3.9388e-05
3.9314e-05
3.9259e-05
3.9169e-05
3.89749e-05
3.85951e-05
3.79596e-05
2.62057e-05
1.06008e-05
4.74073e-06
2.83421e-06
2.51616e-06
3.1676e-06
6.21535e-06
7.44991e-06
1.69451e-07
1.25057e-07
4.10692e-06
1.54229e-05
1.51426e-05
1.47598e-05
1.69915e-05
2.24731e-05
3.21628e-05
4.50182e-05
4.55699e-05
4.48943e-05
4.40617e-05
4.3182e-05
4.23415e-05
4.16011e-05
4.09935e-05
4.05275e-05
4.01982e-05
3.99882e-05
3.98738e-05
3.98219e-05
3.97909e-05
3.97306e-05
3.95796e-05
3.92644e-05
3.87125e-05
2.8412e-05
1.18988e-05
5.13436e-06
3.02222e-06
2.52902e-06
2.95439e-06
5.78215e-06
7.82313e-06
1.70977e-07
1.26496e-07
4.04112e-06
1.56707e-05
1.54783e-05
1.54201e-05
1.83299e-05
2.36557e-05
3.18341e-05
4.36103e-05
4.58107e-05
4.50561e-05
4.4162e-05
4.32467e-05
4.23979e-05
4.16756e-05
4.11043e-05
4.06871e-05
4.04133e-05
4.0261e-05
4.02013e-05
4.01963e-05
4.01997e-05
4.01573e-05
4.00046e-05
3.96684e-05
3.90773e-05
2.62939e-05
1.10831e-05
5.02629e-06
3.04635e-06
2.53871e-06
2.92602e-06
5.61943e-06
7.93817e-06
1.76606e-07
1.26204e-07
3.9322e-06
1.56657e-05
1.5896e-05
1.6109e-05
1.81389e-05
2.32599e-05
3.3476e-05
4.60561e-05
4.59963e-05
4.51739e-05
4.42396e-05
4.33133e-05
4.24661e-05
4.17615e-05
4.12216e-05
4.08476e-05
4.06236e-05
4.05226e-05
4.05147e-05
4.05596e-05
4.06087e-05
4.0603e-05
4.04766e-05
4.01501e-05
3.95467e-05
2.58892e-05
1.07886e-05
4.79753e-06
2.91532e-06
2.52053e-06
3.0444e-06
6.3036e-06
7.50166e-06
1.73107e-07
1.2381e-07
4.11405e-06
1.57945e-05
1.52379e-05
1.65174e-05
2.14412e-05
2.85719e-05
3.7404e-05
4.67257e-05
4.61331e-05
4.52782e-05
4.43305e-05
4.34164e-05
4.25947e-05
4.19025e-05
4.13767e-05
4.10128e-05
4.08076e-05
4.0737e-05
4.07672e-05
4.08555e-05
4.09493e-05
4.09858e-05
4.08932e-05
4.05894e-05
3.99939e-05
2.69408e-05
1.0504e-05
4.80732e-06
2.96063e-06
2.54233e-06
3.08207e-06
6.28952e-06
7.64187e-06
1.69055e-07
1.20644e-07
4.11443e-06
1.55598e-05
1.51136e-05
1.53579e-05
1.90592e-05
2.64195e-05
3.66073e-05
4.5548e-05
4.54404e-05
4.49403e-05
4.42066e-05
4.34057e-05
4.26602e-05
4.20104e-05
4.15257e-05
4.12056e-05
4.10382e-05
4.10028e-05
4.1074e-05
4.12109e-05
4.13598e-05
4.14527e-05
4.1412e-05
4.11475e-05
4.05735e-05
2.60575e-05
1.032e-05
4.80659e-06
3.00111e-06
2.59676e-06
3.12479e-06
6.30485e-06
7.45164e-06
1.67604e-07
1.18351e-07
4.04094e-06
1.48946e-05
1.47165e-05
1.52282e-05
1.87685e-05
2.55533e-05
3.52944e-05
4.49913e-05
4.49457e-05
4.45883e-05
4.40107e-05
4.33396e-05
4.26771e-05
4.20895e-05
4.16493e-05
4.13607e-05
4.12234e-05
4.12213e-05
4.13323e-05
4.15209e-05
4.17352e-05
4.19033e-05
4.19304e-05
4.17117e-05
4.11382e-05
2.83364e-05
1.09679e-05
4.96295e-06
3.00464e-06
2.59946e-06
3.13032e-06
6.0937e-06
7.8156e-06
1.65518e-07
1.19693e-07
4.09022e-06
1.51325e-05
1.46909e-05
1.52758e-05
1.87033e-05
2.53247e-05
3.44496e-05
4.49041e-05
4.48853e-05
4.45507e-05
4.40168e-05
4.3404e-05
4.28077e-05
4.22933e-05
4.1898e-05
4.16385e-05
4.15194e-05
4.15306e-05
4.16585e-05
4.18735e-05
4.21275e-05
4.23514e-05
4.24532e-05
4.23267e-05
4.18671e-05
3.09316e-05
1.29339e-05
5.49352e-06
3.11262e-06
2.56273e-06
3.02852e-06
5.86298e-06
8.07593e-06
1.64703e-07
1.20871e-07
4.16458e-06
1.54501e-05
1.51905e-05
1.54313e-05
1.88585e-05
2.53658e-05
3.48838e-05
4.55032e-05
4.54516e-05
4.51341e-05
4.46095e-05
4.39856e-05
4.33517e-05
4.2777e-05
4.23115e-05
4.19802e-05
4.17953e-05
4.17559e-05
4.18506e-05
4.20523e-05
4.23142e-05
4.25678e-05
4.27172e-05
4.26481e-05
4.22498e-05
3.44375e-05
1.47578e-05
5.87738e-06
3.19771e-06
2.54687e-06
2.91483e-06
5.53262e-06
8.46793e-06
1.64616e-07
1.23315e-07
4.24322e-06
1.57802e-05
1.53319e-05
1.5581e-05
1.885e-05
2.54196e-05
3.58485e-05
4.63539e-05
4.62584e-05
4.58989e-05
4.53222e-05
4.46351e-05
4.39338e-05
4.32921e-05
4.27645e-05
4.23778e-05
4.2146e-05
4.20702e-05
4.21417e-05
4.23382e-05
4.26141e-05
4.29e-05
4.30958e-05
4.30785e-05
4.27354e-05
3.39862e-05
1.46175e-05
6.05326e-06
3.31467e-06
2.59082e-06
2.9071e-06
5.50397e-06
8.52392e-06
1.63685e-07
1.26561e-07
4.27571e-06
1.58584e-05
1.54641e-05
1.54143e-05
1.82434e-05
2.43155e-05
3.3997e-05
4.63513e-05
4.7132e-05
4.67063e-05
4.60606e-05
4.53022e-05
4.45262e-05
4.38043e-05
4.3194e-05
4.27282e-05
4.24262e-05
4.22918e-05
4.23175e-05
4.24782e-05
4.27224e-05
4.29786e-05
4.31518e-05
4.31261e-05
4.27863e-05
3.55263e-05
1.55489e-05
6.49815e-06
3.43224e-06
2.57707e-06
2.87441e-06
5.28054e-06
8.67294e-06
1.60355e-07
1.31052e-07
4.19522e-06
1.59424e-05
1.59929e-05
1.51835e-05
1.74231e-05
2.32588e-05
3.34972e-05
4.64682e-05
4.80273e-05
4.75001e-05
4.67447e-05
4.58744e-05
4.49912e-05
4.41784e-05
4.3499e-05
4.29862e-05
4.26563e-05
4.25086e-05
4.25325e-05
4.27011e-05
4.29627e-05
4.32432e-05
4.34392e-05
4.34337e-05
4.31244e-05
3.63441e-05
1.71589e-05
7.04479e-06
3.63344e-06
2.65559e-06
2.77551e-06
4.86736e-06
8.97553e-06
1.61478e-07
1.34891e-07
4.23555e-06
1.66109e-05
1.68291e-05
1.58461e-05
1.78283e-05
2.31809e-05
3.32205e-05
4.76203e-05
4.87502e-05
4.81558e-05
4.73292e-05
4.63939e-05
4.54576e-05
4.46037e-05
4.3893e-05
4.33547e-05
4.30002e-05
4.28254e-05
4.2819e-05
4.295e-05
4.31659e-05
4.33962e-05
4.35462e-05
4.35023e-05
4.31809e-05
3.76748e-05
1.76891e-05
7.06501e-06
3.59499e-06
2.6582e-06
2.81116e-06
4.98931e-06
9.76484e-06
1.70067e-07
1.40261e-07
4.25288e-06
1.64955e-05
1.65385e-05
1.55104e-05
1.75191e-05
2.29912e-05
3.30037e-05
4.77825e-05
4.94472e-05
4.88058e-05
4.7925e-05
4.69291e-05
4.59322e-05
4.50217e-05
4.42631e-05
4.36879e-05
4.33098e-05
4.31254e-05
4.31198e-05
4.32568e-05
4.34777e-05
4.37023e-05
4.38237e-05
4.372e-05
4.32769e-05
3.76457e-05
1.56167e-05
6.38855e-06
3.47204e-06
2.69327e-06
2.82391e-06
4.91689e-06
8.82554e-06
1.706e-07
1.43126e-07
4.14153e-06
1.59597e-05
1.65835e-05
1.5316e-05
1.66379e-05
2.13768e-05
3.07457e-05
4.43829e-05
4.99804e-05
4.9286e-05
4.83527e-05
4.73101e-05
4.62745e-05
4.53344e-05
4.45545e-05
4.39645e-05
4.35754e-05
4.33811e-05
4.3364e-05
4.34863e-05
4.3689e-05
4.38853e-05
4.39599e-05
4.37853e-05
4.32661e-05
3.59588e-05
1.40157e-05
5.65193e-06
3.26503e-06
2.62606e-06
3.0095e-06
5.91221e-06
8.5075e-06
1.59479e-07
1.44265e-07
4.18271e-06
1.62022e-05
1.66972e-05
1.547e-05
1.74388e-05
2.29447e-05
3.21353e-05
4.43271e-05
5.0632e-05
4.99155e-05
4.89496e-05
4.78712e-05
4.67986e-05
4.58203e-05
4.50032e-05
4.4378e-05
4.39565e-05
4.3733e-05
4.36898e-05
4.37903e-05
4.39826e-05
4.41845e-05
4.42877e-05
4.4166e-05
4.37274e-05
3.37847e-05
1.46613e-05
6.08604e-06
3.38322e-06
2.62829e-06
2.9652e-06
5.60045e-06
8.76957e-06
1.52022e-07
1.47663e-07
4.29508e-06
1.639e-05
1.7212e-05
1.69238e-05
1.89239e-05
2.32714e-05
3.1891e-05
4.37349e-05
5.10828e-05
5.03149e-05
4.92957e-05
4.8168e-05
4.70576e-05
4.60585e-05
4.52375e-05
4.46247e-05
4.42247e-05
4.40231e-05
4.39948e-05
4.40969e-05
4.42766e-05
4.44544e-05
4.45362e-05
4.44118e-05
4.3985e-05
3.34005e-05
1.52257e-05
6.51967e-06
3.53113e-06
2.63483e-06
2.86583e-06
5.22143e-06
9.30797e-06
1.54179e-07
1.49068e-07
4.37143e-06
1.66605e-05
1.74111e-05
1.73019e-05
2.0284e-05
2.47872e-05
3.13033e-05
4.208e-05
5.1473e-05
5.06225e-05
4.95454e-05
4.83896e-05
4.72807e-05
4.63122e-05
4.55421e-05
4.49888e-05
4.46489e-05
4.45036e-05
4.45251e-05
4.46719e-05
4.48849e-05
4.50875e-05
4.51829e-05
4.50585e-05
4.4606e-05
3.42355e-05
1.49866e-05
6.3956e-06
3.51755e-06
2.70339e-06
2.88317e-06
5.11393e-06
9.36379e-06
1.56276e-07
1.50278e-07
4.36984e-06
1.68434e-05
1.79121e-05
1.68541e-05
1.83132e-05
2.3611e-05
3.3652e-05
4.4664e-05
5.21913e-05
5.12682e-05
5.01543e-05
4.89915e-05
4.7884e-05
4.69063e-05
4.61135e-05
4.55277e-05
4.51542e-05
4.49847e-05
4.49925e-05
4.51361e-05
4.53542e-05
4.55671e-05
4.56743e-05
4.55573e-05
4.50917e-05
3.64403e-05
1.59728e-05
6.50072e-06
3.44413e-06
2.56942e-06
2.84757e-06
5.47795e-06
8.74318e-06
1.53708e-07
1.50009e-07
4.49644e-06
1.77683e-05
1.78695e-05
1.75666e-05
2.01206e-05
2.58771e-05
3.49212e-05
4.61465e-05
5.29071e-05
5.20773e-05
5.10009e-05
4.9818e-05
4.86544e-05
4.76064e-05
4.67427e-05
4.60986e-05
4.56841e-05
4.54937e-05
4.54984e-05
4.56568e-05
4.59069e-05
4.61639e-05
4.63212e-05
4.62573e-05
4.58327e-05
3.72821e-05
1.6142e-05
6.63194e-06
3.53229e-06
2.64349e-06
2.8859e-06
5.21667e-06
9.67617e-06
1.50287e-07
1.51053e-07
4.6062e-06
1.79785e-05
1.83894e-05
1.77906e-05
2.05552e-05
2.63254e-05
3.56533e-05
4.94221e-05
5.41834e-05
5.32124e-05
5.2003e-05
5.0698e-05
4.9424e-05
4.82783e-05
4.73331e-05
4.66205e-05
4.61519e-05
4.59213e-05
4.5906e-05
4.6061e-05
4.63184e-05
4.6584e-05
4.67386e-05
4.66453e-05
4.61714e-05
3.9059e-05
1.68324e-05
6.90464e-06
3.62379e-06
2.65113e-06
2.84069e-06
5.16761e-06
9.85275e-06
1.49103e-07
1.52502e-07
4.62276e-06
1.80235e-05
1.84627e-05
1.86404e-05
2.11977e-05
2.58938e-05
3.50237e-05
4.67166e-05
5.50874e-05
5.4023e-05
5.27139e-05
5.13129e-05
4.99505e-05
4.87261e-05
4.77109e-05
4.69426e-05
4.64379e-05
4.61909e-05
4.61802e-05
4.63597e-05
4.66585e-05
4.69753e-05
4.71764e-05
4.7114e-05
4.66528e-05
3.92454e-05
1.6708e-05
6.69366e-06
3.65989e-06
2.72e-06
2.8621e-06
5.17461e-06
9.84532e-06
1.4461e-07
1.58025e-07
4.6697e-06
1.84248e-05
1.83547e-05
1.70015e-05
1.95196e-05
2.62629e-05
3.75263e-05
5.34553e-05
5.61192e-05
5.4956e-05
5.35398e-05
5.2048e-05
5.06007e-05
4.92908e-05
4.81934e-05
4.73484e-05
4.67749e-05
4.64699e-05
4.64147e-05
4.65661e-05
4.6857e-05
4.71863e-05
4.74239e-05
4.7417e-05
4.70591e-05
3.73107e-05
1.80645e-05
7.42804e-06
3.83624e-06
2.68309e-06
2.78277e-06
4.95313e-06
1.034e-05
1.42358e-07
1.60165e-07
4.57094e-06
1.83288e-05
1.82146e-05
1.60059e-05
1.85033e-05
2.65812e-05
3.94872e-05
5.57689e-05
5.64849e-05
5.53613e-05
5.39573e-05
5.24449e-05
5.09723e-05
4.96379e-05
4.85181e-05
4.76582e-05
4.70772e-05
4.67719e-05
4.67224e-05
4.68837e-05
4.71859e-05
4.75273e-05
4.77809e-05
4.78031e-05
4.74829e-05
3.70623e-05
1.84734e-05
7.92197e-06
4.02223e-06
2.73979e-06
2.74352e-06
4.70899e-06
1.05708e-05
1.39957e-07
1.60918e-07
4.87316e-06
1.91632e-05
1.8961e-05
1.78849e-05
2.05413e-05
2.71222e-05
3.92073e-05
5.66763e-05
5.70534e-05
5.59296e-05
5.45314e-05
5.30185e-05
5.1523e-05
5.01547e-05
4.89961e-05
4.81011e-05
4.74906e-05
4.71618e-05
4.70938e-05
4.72401e-05
4.75291e-05
4.78587e-05
4.80955e-05
4.80913e-05
4.77296e-05
3.90157e-05
1.95528e-05
8.12235e-06
3.97142e-06
2.72676e-06
2.78571e-06
4.78427e-06
1.10459e-05
1.40502e-07
1.59404e-07
4.85497e-06
1.88039e-05
1.91447e-05
1.82747e-05
2.04702e-05
2.64419e-05
3.93762e-05
5.75746e-05
5.76683e-05
5.66041e-05
5.52305e-05
5.36949e-05
5.21483e-05
5.07177e-05
4.94995e-05
4.8557e-05
4.79166e-05
4.75773e-05
4.75164e-05
4.76824e-05
4.80031e-05
4.83687e-05
4.86404e-05
4.86653e-05
4.83276e-05
4.4296e-05
2.16338e-05
8.59767e-06
4.11205e-06
2.73086e-06
2.6611e-06
4.51197e-06
1.02369e-05
1.40885e-07
1.60521e-07
4.91008e-06
1.84511e-05
1.95567e-05
1.76876e-05
2.05038e-05
2.88718e-05
4.15966e-05
5.71021e-05
5.8357e-05
5.71754e-05
5.56823e-05
5.4036e-05
5.2399e-05
5.0905e-05
4.96529e-05
4.87045e-05
4.80805e-05
4.77727e-05
4.77524e-05
4.7961e-05
4.8315e-05
4.86997e-05
4.89697e-05
4.8971e-05
4.85851e-05
4.12976e-05
1.96803e-05
8.1463e-06
4.10866e-06
2.74649e-06
2.73363e-06
4.64304e-06
1.11684e-05
1.36492e-07
1.63692e-07
5.15612e-06
1.92726e-05
1.89039e-05
2.08453e-05
2.53446e-05
3.25043e-05
4.31013e-05
5.64985e-05
5.90352e-05
5.77706e-05
5.61847e-05
5.4464e-05
5.2776e-05
5.12521e-05
4.99866e-05
4.90357e-05
4.84161e-05
4.81168e-05
4.81071e-05
4.83299e-05
4.87015e-05
4.91118e-05
4.94113e-05
4.94372e-05
4.90688e-05
4.00084e-05
1.95441e-05
8.20484e-06
4.18428e-06
2.7945e-06
2.7839e-06
4.81557e-06
1.15426e-05
1.36409e-07
1.57591e-07
4.94822e-06
1.84447e-05
1.87304e-05
2.03527e-05
2.50804e-05
3.21417e-05
4.40522e-05
5.94377e-05
5.96648e-05
5.83807e-05
5.67464e-05
5.49754e-05
5.32263e-05
5.16375e-05
5.03119e-05
4.93106e-05
4.86554e-05
4.83369e-05
4.83197e-05
4.85414e-05
4.89098e-05
4.93046e-05
4.9573e-05
4.95519e-05
4.91086e-05
4.00472e-05
1.8347e-05
7.78155e-06
4.09371e-06
2.83366e-06
2.87001e-06
4.92645e-06
1.19882e-05
1.35467e-07
1.53662e-07
4.91617e-06
1.81975e-05
1.8505e-05
2.08324e-05
2.61484e-05
3.26157e-05
4.22252e-05
5.37965e-05
5.98501e-05
5.86577e-05
5.70578e-05
5.52557e-05
5.34449e-05
5.18007e-05
5.04376e-05
4.94083e-05
4.87327e-05
4.84125e-05
4.84034e-05
4.86515e-05
4.90661e-05
4.95236e-05
4.98625e-05
4.99037e-05
4.94995e-05
4.02128e-05
1.78543e-05
7.44487e-06
4.13133e-06
2.8987e-06
2.82764e-06
4.85558e-06
1.10532e-05
1.27063e-07
1.52666e-07
4.87988e-06
1.84253e-05
1.8551e-05
1.89822e-05
2.31507e-05
3.24436e-05
4.42797e-05
5.66197e-05
6.0019e-05
5.88317e-05
5.72404e-05
5.54573e-05
5.36673e-05
5.20165e-05
5.06349e-05
4.95891e-05
4.88879e-05
4.85235e-05
4.84724e-05
4.86843e-05
4.9079e-05
4.95467e-05
4.99458e-05
5.01045e-05
4.9879e-05
4.45942e-05
2.40562e-05
9.47864e-06
4.49193e-06
2.79666e-06
2.62598e-06
4.45482e-06
1.16911e-05
1.2215e-07
1.51689e-07
4.8276e-06
1.86656e-05
1.84793e-05
1.80196e-05
2.21494e-05
3.18982e-05
4.59024e-05
6.00105e-05
5.94734e-05
5.84318e-05
5.69905e-05
5.53426e-05
5.36802e-05
5.21006e-05
5.07375e-05
4.96882e-05
4.89725e-05
4.85875e-05
4.85157e-05
4.87157e-05
4.91081e-05
4.95807e-05
5.00037e-05
5.02126e-05
5.00524e-05
4.53799e-05
2.44667e-05
9.96199e-06
4.66673e-06
2.80979e-06
2.57566e-06
4.3047e-06
1.22289e-05
1.22345e-07
1.51251e-07
4.8193e-06
1.85176e-05
1.83889e-05
1.81846e-05
2.23598e-05
3.19225e-05
4.69699e-05
5.96104e-05
5.91344e-05
5.81933e-05
5.68563e-05
5.52947e-05
5.36784e-05
5.21378e-05
5.08231e-05
4.97871e-05
4.90631e-05
4.86615e-05
4.85724e-05
4.8759e-05
4.91526e-05
4.96475e-05
5.01123e-05
5.03784e-05
5.02857e-05
4.77583e-05
2.64575e-05
1.10293e-05
5.10954e-06
2.94222e-06
2.58923e-06
4.26705e-06
1.62888e-05
1.2046e-07
1.51777e-07
4.83406e-06
1.85118e-05
1.82287e-05
1.82226e-05
2.22523e-05
3.15586e-05
4.61527e-05
5.9749e-05
5.9238e-05
5.82766e-05
5.69516e-05
5.5389e-05
5.37495e-05
5.22308e-05
5.09166e-05
4.98838e-05
4.91663e-05
4.87757e-05
4.87001e-05
4.88973e-05
4.93059e-05
4.98203e-05
5.02979e-05
5.05734e-05
5.05054e-05
4.98229e-05
2.72963e-05
1.15202e-05
5.51838e-06
3.19785e-06
2.61835e-06
4.00354e-06
2.22845e-05
1.20834e-07
1.54042e-07
4.9922e-06
1.87718e-05
1.85923e-05
1.85408e-05
2.26231e-05
3.22108e-05
4.59497e-05
6.00384e-05
5.94703e-05
5.8371e-05
5.70234e-05
5.5483e-05
5.38733e-05
5.2371e-05
5.10621e-05
5.00268e-05
4.93022e-05
4.8901e-05
4.88137e-05
4.89948e-05
4.93945e-05
4.98993e-05
5.03696e-05
5.06486e-05
5.05757e-05
5.00746e-05
2.75894e-05
1.19397e-05
5.69317e-06
3.38263e-06
2.67893e-06
3.79146e-06
2.62586e-05
1.24636e-07
1.58335e-07
5.24539e-06
1.93997e-05
1.89078e-05
1.93617e-05
2.41152e-05
3.30335e-05
4.52329e-05
5.89185e-05
5.91025e-05
5.82707e-05
5.70419e-05
5.54878e-05
5.39175e-05
5.24403e-05
5.11575e-05
5.01525e-05
4.94627e-05
4.90992e-05
4.90501e-05
4.92626e-05
4.96784e-05
5.01717e-05
5.05932e-05
5.07786e-05
5.06384e-05
4.64457e-05
2.4838e-05
1.05574e-05
5.14877e-06
3.42555e-06
2.93356e-06
4.00162e-06
2.30998e-05
1.31463e-07
1.62179e-07
5.20717e-06
1.88807e-05
1.89186e-05
1.88406e-05
2.25602e-05
3.0817e-05
4.35679e-05
5.79892e-05
5.90665e-05
5.8239e-05
5.70417e-05
5.55634e-05
5.40304e-05
5.25796e-05
5.13176e-05
5.03403e-05
4.96657e-05
4.93035e-05
4.9241e-05
4.94297e-05
4.98136e-05
5.02685e-05
5.06458e-05
5.07779e-05
5.05393e-05
4.47223e-05
2.35939e-05
9.94261e-06
4.80518e-06
3.07088e-06
2.7158e-06
4.15275e-06
1.3622e-05
1.28702e-07
1.70514e-07
4.83685e-06