/*--------------------------------*- C++ -*----------------------------------*\
| =========                 |                                                 |
| \\      /  F ield         | OpenFOAM: The Open Source CFD Toolbox           |
|  \\    /   O peration     | Version:  2.0.x                                 |
|   \\  /    A nd           | Web:      www.OpenFOAM.org                      |
|    \\/     M anipulation  |                                                 |
\*---------------------------------------------------------------------------*/
FoamFile
{
    version     2.0;
    format      ascii;
    class       volScalarField;
    location    "50";
    object      omega;
}
// * * * * * * * * * * * * * * * * * * * * * * * * * * * * * * * * * * * * * //

dimensions      [0 0 -1 0 0 0 0];

internalField   nonuniform List<scalar> 
78750
(
1029.37
4.81715
4.98406
4.81052
4.75615
4.7045
4.65174
4.60274
4.56109
4.52598
4.49935
4.47962
4.46369
4.45226
4.44446
4.43918
4.4357
4.43288
4.43054
4.42882
4.43002
4.43066
4.42954
4.42987
4.43122
4.43375
4.4385
4.44105
4.44097
4.44016
4.43959
4.4354
4.42965
4.41228
1095.34
1025.77
4.349
4.37883
4.39177
4.39701
4.39637
4.39716
4.39604
4.39812
4.39895
4.3997
4.39955
4.39742
4.39452
4.39033
4.38692
4.38557
4.38484
4.38527
4.38696
4.39059
4.39518
4.40098
4.40791
4.41466
4.42096
4.42672
4.43166
4.43668
4.44147
4.4429
4.44896
4.46917
4.53179
1095.81
1025.74
4.33597
4.38029
4.40281
4.40582
4.40105
4.39439
4.39008
4.38749
4.38686
4.38698
4.38649
4.38692
4.38815
4.39018
4.39225
4.39389
4.39535
4.39746
4.40101
4.40569
4.41057
4.41561
4.42065
4.42637
4.43309
4.43933
4.44468
4.44988
4.45346
4.45822
4.47963
4.54596
4.70919
1096.18
1025.73
4.37741
4.44296
4.47472
4.48282
4.4777
4.46165
4.44173
4.42414
4.41029
4.39835
4.38714
4.37714
4.3694
4.36438
4.36268
4.36288
4.36481
4.36964
4.37656
4.38542
4.39571
4.40672
4.4179
4.42905
4.43953
4.44817
4.45374
4.4565
4.46114
4.48014
4.53203
4.65631
4.89292
1096.49
1025.78
4.42731
4.48316
4.50908
4.51439
4.50366
4.48334
4.45977
4.43744
4.4193
4.40523
4.39459
4.38751
4.38431
4.38402
4.38605
4.39123
4.39897
4.40862
4.4196
4.43133
4.44323
4.45477
4.4657
4.47524
4.48236
4.48687
4.49014
4.49275
4.49892
4.52757
4.60433
4.77062
5.04601
1096.7
1025.81
4.44776
4.5054
4.5347
4.54466
4.53967
4.52581
4.50895
4.49317
4.47978
4.46894
4.46109
4.45664
4.45538
4.45675
4.46057
4.46617
4.4729
4.48012
4.48724
4.49375
4.49923
4.50351
4.5069
4.50752
4.50526
4.50223
4.5002
4.50404
4.52151
4.57498
4.68243
4.87358
5.16119
1096.82
1025.82
4.47835
4.54394
4.5778
4.59073
4.58827
4.5775
4.56446
4.55257
4.54211
4.53307
4.52593
4.52092
4.5181
4.51716
4.51759
4.51906
4.52104
4.52306
4.52478
4.52598
4.52555
4.52301
4.51935
4.51466
4.50927
4.5038
4.5005
4.50671
4.5374
4.61208
4.74602
4.95626
5.24179
1096.87
1025.85
4.50276
4.5707
4.60985
4.63035
4.63489
4.6298
4.62078
4.61141
4.60245
4.59401
4.58662
4.58055
4.57581
4.5723
4.5697
4.56767
4.56583
4.56373
4.56095
4.55723
4.55239
4.54641
4.5393
4.53118
4.52258
4.51422
4.50943
4.51834
4.56253
4.65719
4.80988
5.02323
5.29103
1096.87
1025.88
4.52859
4.59748
4.63981
4.66591
4.677
4.67855
4.67529
4.67017
4.66433
4.65811
4.65198
4.6463
4.64119
4.63662
4.63246
4.62853
4.62461
4.62039
4.61553
4.60972
4.60281
4.59469
4.58528
4.57467
4.56336
4.55146
4.54122
4.54628
4.58474
4.68692
4.85047
5.06469
5.32034
1096.89
1025.91
4.55036
4.61932
4.66428
4.69532
4.7122
4.71867
4.71946
4.71769
4.71465
4.71077
4.70658
4.70241
4.69836
4.69442
4.69051
4.68649
4.68222
4.67743
4.67183
4.66515
4.65721
4.64792
4.63718
4.62513
4.6123
4.59802
4.58203
4.57529
4.60111
4.69807
4.86132
5.07961
5.34486
1096.93
1025.94
4.57631
4.64438
4.69076
4.72496
4.74575
4.75616
4.7602
4.76102
4.76013
4.75804
4.75534
4.75236
4.74926
4.74601
4.74258
4.73884
4.73457
4.72951
4.72338
4.71589
4.70681
4.69604
4.6836
4.66979
4.65535
4.63954
4.62193
4.61326
4.64138
4.73466
4.9031
5.12686
5.38518
1096.89
1025.98
4.59902
4.66658
4.71464
4.75192
4.77609
4.78954
4.79602
4.79869
4.79924
4.79834
4.79666
4.79456
4.79219
4.78951
4.78645
4.78288
4.77857
4.77325
4.76662
4.75839
4.74831
4.73625
4.72226
4.70674
4.69061
4.67306
4.65444
4.6481
4.68494
4.78402
4.9451
5.15115
5.38635
1096.87
1026.01
4.62317
4.69167
4.74185
4.78187
4.80842
4.82357
4.83118
4.83466
4.83585
4.83547
4.83429
4.83274
4.83096
4.82888
4.8264
4.82333
4.81945
4.81446
4.80805
4.79989
4.78969
4.77727
4.76267
4.74628
4.72909
4.71029
4.69007
4.6821
4.7208
4.82258
4.98012
5.17336
5.38747
1096.83
1026.03
4.64433
4.71454
4.76754
4.81079
4.83986
4.85657
4.86492
4.8687
4.86993
4.86943
4.86812
4.86655
4.86487
4.863
4.86079
4.85799
4.85433
4.8495
4.84317
4.83496
4.8245
4.8115
4.79591
4.77812
4.75909
4.73796
4.71542
4.70667
4.74747
4.84924
5.00145
5.18236
5.37846
1096.77
1026.06
4.66586
4.73869
4.79495
4.84165
4.87329
4.89128
4.8999
4.90343
4.90421
4.90309
4.90119
4.89916
4.89724
4.89535
4.8933
4.89084
4.88765
4.8834
4.8777
4.87013
4.86026
4.84769
4.83228
4.81429
4.79455
4.77206
4.74679
4.73341
4.76892
4.86871
5.01679
5.18759
5.37019
1096.74
1026.08
4.6859
4.76279
4.82296
4.87376
4.90846
4.92803
4.93695
4.93998
4.93976
4.93735
4.93406
4.93074
4.92772
4.92498
4.92233
4.91951
4.91615
4.91187
4.90622
4.8987
4.88882
4.87609
4.86024
4.84145
4.82037
4.79563
4.76689
4.74943
4.78114
4.87899
5.02803
5.20189
5.36093
1096.73
1026.1
4.70806
4.78841
4.85247
4.9072
4.94478
4.96597
4.97527
4.97775
4.97638
4.97231
4.96723
4.96226
4.95791
4.95421
4.95099
4.94796
4.9447
4.94075
4.93561
4.92872
4.9195
4.90736
4.89189
4.8731
4.8516
4.82558
4.79388
4.77239
4.80069
4.89393
5.03594
5.19895
5.36879
1096.74
1026.11
4.72471
4.81033
4.87887
4.93775
4.97866
5.00194
5.01201
5.01421
5.01177
5.00598
4.99889
4.99194
4.98587
4.98082
4.97666
4.97312
4.96974
4.96598
4.96124
4.9549
4.94626
4.93461
4.91934
4.90021
4.87763
4.84945
4.81435
4.79037
4.81617
4.90479
5.04253
5.20802
5.36585
1096.73
1026.14
4.74823
4.837
4.90902
4.97102
5.01355
5.03714
5.04688
5.04832
5.04479
5.0375
5.0287
5.02011
5.01266
5.00662
5.0019
4.99824
4.99515
4.99206
4.98833
4.98325
4.97605
4.9659
4.95202
4.93391
4.91182
4.88335
4.84644
4.81913
4.84107
4.9248
5.05357
5.20063
5.35467
1096.72
1026.14
4.76041
4.85485
4.93195
4.99839
5.04367
5.06853
5.07856
5.07969
5.07546
5.06712
5.05698
5.04695
5.03814
5.03094
5.02536
5.0212
5.01799
5.01511
5.01189
5.00757
5.00129
4.99209
4.97896
4.96117
4.93863
4.90841
4.8684
4.83847
4.85849
4.9387
5.06094
5.20313
5.36144
1096.72
1026.17
4.78099
4.87917
4.96007
5.02996
5.07756
5.10338
5.11336
5.11391
5.10874
5.0992
5.08763
5.07611
5.06591
5.05754
5.05115
5.04657
5.04337
5.04095
5.03863
5.03559
5.03089
5.02343
5.01205
4.99577
4.97422
4.94405
4.90223
4.86856
4.885
4.96267
5.07954
5.21245
5.35911
1096.71
1026.17
4.79039
4.89517
4.98185
5.05696
5.10849
5.13674
5.14787
5.14863
5.14299
5.13238
5.11934
5.10615
5.09426
5.08434
5.07668
5.07118
5.06744
5.06481
5.06259
5.05992
5.05577
5.0489
5.03799
5.02182
4.99977
4.96805
4.9234
4.8882
4.90499
4.98271
5.09511
5.21717
5.35425
1096.7
1026.18
4.80891
4.91998
5.01119
5.09029
5.1449
5.17513
5.18708
5.18771
5.18113
5.16877
5.15354
5.13806
5.12402
5.11227
5.10319
5.09679
5.09266
5.09016
5.08856
5.08695
5.08422
5.07902
5.06984
5.0553
5.03452
5.00391
4.95946
4.91861
4.92927
5.00274
5.11231
5.22957
5.35771
1096.69
1026.18
4.82023
4.93747
5.0338
5.118
5.17682
5.21019
5.2242
5.22566
5.21894
5.20543
5.18826
5.17046
5.15407
5.14019
5.12929
5.1215
5.11644
5.11346
5.1118
5.11048
5.10827
5.10369
5.09497
5.08052
5.05927
5.0276
4.98103
4.93644
4.94164
5.01113
5.11862
5.23359
5.35825
1096.69
1026.2
4.84018
4.96236
5.0621
5.14908
5.2104
5.24574
5.26084
5.26246
5.25508
5.24029
5.22131
5.20147
5.18308
5.16745
5.15517
5.14644
5.14091
5.13792
5.13672
5.13625
5.13522
5.13202
5.12469
5.11138
5.09085
5.05943
5.01204
4.96426
4.96625
5.03512
5.14084
5.25439
5.36196
1096.67
1026.21
4.8558
4.98191
5.08569
5.17695
5.24204
5.28023
5.2968
5.29875
5.29092
5.27516
5.25474
5.23324
5.21316
5.19596
5.18233
5.17249
5.16611
5.16252
5.16097
5.16037
5.15946
5.15663
5.14991
5.13735
5.11752
5.08725
5.04071
4.98736
4.97509
5.03703
5.14276
5.25439
5.35955
1096.66
1026.22
4.87105
5.00031
5.10638
5.20038
5.26876
5.30996
5.32858
5.33157
5.32391
5.30766
5.2862
5.26335
5.24186
5.22338
5.20871
5.19815
5.1914
5.18782
5.1866
5.1866
5.18645
5.18449
5.17871
5.16708
5.14801
5.1186
5.0723
5.01451
4.99155
5.04628
5.14727
5.25917
5.36215
1096.66
1026.24
4.89092
5.02304
5.13044
5.2257
5.29569
5.33835
5.35795
5.3613
5.35338
5.33631
5.31359
5.28926
5.26625
5.24637
5.2305
5.21902
5.21164
5.20778
5.20659
5.20684
5.20702
5.20528
5.19939
5.187
5.16625
5.13378
5.08244
5.02029
4.99819
5.05209
5.15043
5.2542
5.34842
1096.62
1026.26
4.91
5.044
5.15199
5.24764
5.31809
5.3614
5.38173
5.38572
5.3782
5.36136
5.33849
5.31372
5.29011
5.26957
5.2531
5.24114
5.23349
5.22964
5.22875
5.22965
5.2309
5.23065
5.2266
5.21625
5.19749
5.16729
5.11788
5.05257
5.02253
5.06922
5.15911
5.25015
5.3283
1096.57
1026.28
4.93279
5.06946
5.17821
5.27355
5.34325
5.38564
5.40513
5.40833
5.40004
5.38258
5.35909
5.33369
5.30946
5.28833
5.27131
5.25883
5.25069
5.24636
5.24508
5.24576
5.24706
5.24725
5.24413
5.23515
5.21806
5.19055
5.14516
5.08
5.03482
5.06607
5.14741
5.2336
5.30939
1096.55
1026.3
4.95626
5.09643
5.2065
5.30218
5.37145
5.41289
5.43133
5.43364
5.4247
5.40682
5.38297
5.35727
5.33277
5.31133
5.29397
5.28109
5.27253
5.26775
5.26604
5.26636
5.26742
5.26758
5.26475
5.25646
5.24053
5.21536
5.17371
5.10739
5.05103
5.06527
5.13842
5.22827
5.31354
1096.57
1026.33
4.98334
5.12709
5.23864
5.33465
5.40348
5.44403
5.46153
5.46297
5.45318
5.43436
5.40949
5.38262
5.35682
5.33402
5.31537
5.30131
5.29175
5.28617
5.28384
5.28366
5.2842
5.28368
5.27994
5.27023
5.25244
5.22485
5.18004
5.1125
5.05293
5.06543
5.13994
5.232
5.3175
1096.59
1026.35
5.00899
5.15611
5.27115
5.36993
5.44001
5.48028
5.49668
5.4968
5.48561
5.46535
5.43893
5.41049
5.38317
5.35895
5.33906
5.32389
5.31334
5.30693
5.30395
5.30326
5.30337
5.30227
5.29734
5.2859
5.26586
5.23532
5.18633
5.1148
5.05607
5.07171
5.14498
5.23385
5.31238
1096.56
1026.38
5.02486
5.17506
5.29526
5.39806
5.47068
5.51157
5.52727
5.52628
5.51386
5.49236
5.4648
5.43526
5.40684
5.38156
5.36065
5.34443
5.33283
5.32535
5.32128
5.31955
5.31869
5.31686
5.31167
5.30029
5.28033
5.2495
5.19954
5.12664
5.06227
5.072
5.14165
5.22172
5.28258
1096.49
1026.41
5.03429
5.1875
5.31555
5.42381
5.50029
5.54189
5.55635
5.55362
5.53923
5.51564
5.48617
5.45501
5.42524
5.39905
5.37762
5.36124
5.34974
5.3425
5.33872
5.33726
5.33671
5.33538
5.33118
5.32162
5.30417
5.27695
5.23147
5.15571
5.08177
5.0703
5.12846
5.20818
5.2807
1096.51
1026.42
5.02616
5.18628
5.32277
5.43875
5.51974
5.56173
5.57393
5.56859
5.55108
5.52425
5.49218
5.45929
5.42896
5.40322
5.38288
5.36802
5.35829
5.35295
5.35099
5.35111
5.35171
5.35096
5.3467
5.33641
5.31771
5.28817
5.23914
5.16264
5.08475
5.06996
5.12687
5.20931
5.28586
1096.55
1026.42
4.99912
5.15511
5.30563
5.44063
5.53058
5.57257
5.58467
5.57752
5.55727
5.52749
5.49376
5.46049
5.4304
5.4051
5.38596
5.37279
5.36501
5.36166
5.36168
5.36368
5.36595
5.36655
5.36322
5.35326
5.33418
5.30318
5.25091
5.17052
5.09219
5.07936
5.13309
5.21
5.28014
1096.53
1026.41
4.98162
5.11734
5.25329
5.39252
5.50695
5.57031
5.58994
5.58341
5.56142
5.53027
5.49618
5.46328
5.43384
5.40941
5.39085
5.37818
5.37127
5.3692
5.37078
5.37452
5.37865
5.38094
5.37896
5.36995
5.35126
5.3201
5.26584
5.17948
5.09596
5.08148
5.1339
5.20438
5.26378
1096.5
1026.39
4.97672
5.11056
5.22362
5.33483
5.41763
5.48522
5.52649
5.54262
5.53851
5.51904
5.4912
5.46168
5.43453
5.41188
5.39492
5.38393
5.3784
5.37762
5.38068
5.38619
5.39227
5.39666
5.39665
5.38914
5.37135
5.3401
5.28474
5.19565
5.1081
5.09059
5.13661
5.20243
5.25836
1096.49
1026.37
4.97857
5.11353
5.22491
5.32684
5.41139
5.46732
5.49902
5.51236
5.51171
5.50012
5.48061
5.45735
5.43427
5.41386
5.39869
5.38887
5.38438
5.38475
5.38931
5.39682
5.40549
5.41283
5.41557
5.41016
5.39278
5.36013
5.30083
5.20391
5.10831
5.08894
5.13439
5.19582
5.2503
1096.48
1026.38
4.97904
5.11599
5.22777
5.32885
5.41146
5.46876
5.5002
5.51267
5.51172
5.50023
5.48075
5.45874
5.43765
5.41972
5.40619
5.3976
5.39409
5.39528
5.40063
5.40917
5.41926
5.42862
5.43397
5.43162
5.4178
5.39013
5.3386
5.24806
5.14151
5.0982
5.13163
5.18907
5.24375
1096.47
1026.38
4.99038
5.12656
5.23974
5.34423
5.42634
5.48141
5.51257
5.52574
5.52588
5.51566
5.49776
5.47632
5.45465
5.43519
5.41967
5.40893
5.40338
5.40297
5.40734
5.41557
5.42612
5.43664
5.44383
5.44369
5.43225
5.40721
5.35911
5.27144
5.16207
5.10547
5.13156
5.18954
5.24546
1096.47
1026.4
5.01962
5.16053
5.27444
5.37794
5.45816
5.51144
5.54096
5.55286
5.55195
5.5409
5.52155
5.49816
5.47431
5.45266
5.4351
5.42254
5.41547
5.41394
5.41767
5.4259
5.43712
5.44903
5.45815
5.46
5.45061
5.42739
5.38073
5.29408
5.18387
5.11959
5.13666
5.19034
5.24458
1096.47
1026.43
5.05494
5.20017
5.31466
5.41757
5.49706
5.54906
5.5767
5.58627
5.58308
5.56976
5.5481
5.52225
5.49578
5.47126
5.45073
5.43533
5.42575
5.42213
5.42422
5.43128
5.44156
5.45258
5.46095
5.46258
5.45337
5.4313
5.38663
5.30316
5.19227
5.12147
5.13548
5.18424
5.23371
1096.45
1026.47
5.08435
5.23129
5.34806
5.45418
5.53668
5.58972
5.61622
5.62338
5.61722
5.59967
5.57355
5.54324
5.51252
5.4844
5.4611
5.44381
5.43304
5.42882
5.43079
5.43813
5.44895
5.46076
5.4699
5.47211
5.46353
5.44108
5.39862
5.32118
5.21788
5.13881
5.14088
5.18758
5.23769
1096.46
1026.49
5.1054
5.25383
5.37279
5.48151
5.56613
5.6204
5.64697
5.65302
5.64467
5.62428
5.59518
5.56214
5.52922
5.49941
5.47488
5.45656
5.44487
5.43966
5.44049
5.44643
5.45568
5.4658
5.47332
5.47419
5.4653
5.44306
5.40189
5.32803
5.22423
5.14515
5.14238
5.18329
5.24164
1096.52
1026.53
5.13472
5.28443
5.40501
5.51468
5.59909
5.65186
5.67655
5.68076
5.67055
5.64828
5.61697
5.58149
5.54615
5.51413
5.48771
5.46795
5.45531
5.44968
5.45051
5.45663
5.46599
5.47581
5.4822
5.48068
5.4678
5.4423
5.39441
5.30985
5.21078
5.15082
5.16216
5.21307
5.27202
1096.53
1026.56
5.1509
5.30659
5.43317
5.54668
5.63196
5.68284
5.7042
5.70478
5.69119
5.66647
5.63283
5.59534
5.55834
5.52504
5.49769
5.47728
5.46416
5.45812
5.45854
5.46415
5.47288
5.48172
5.48643
5.48242
5.46635
5.43625
5.3815
5.28697
5.17994
5.13601
5.16448
5.21442
5.2564
1096.44
1026.57
5.16184
5.32118
5.45061
5.56661
5.65401
5.70641
5.72908
5.73025
5.71644
5.69069
5.65565
5.61663
5.57806
5.54314
5.51418
5.49223
5.47766
5.47028
5.4695
5.47406
5.48216
5.49097
5.49656
5.49441
5.48134
5.45401
5.40155
5.3079
5.19458
5.13568
5.15845
5.20255
5.23009
1096.4
1026.59
5.1819
5.34243
5.47358
5.58891
5.67449
5.72634
5.74852
5.74862
5.73347
5.7059
5.66886
5.6279
5.58777
5.55188
5.52255
5.50081
5.48679
5.47999
5.47955
5.48401
5.49151
5.49928
5.50401
5.5017
5.48902
5.46278
5.41285
5.32347
5.20814
5.12906
5.13827
5.18105
5.21899
1096.42
1026.6
5.19234
5.35659
5.49136
5.61152
5.69915
5.74963
5.7685
5.76456
5.7452
5.71467
5.67555
5.63358
5.59353
5.55885
5.53151
5.51211
5.50046
5.49587
5.49737
5.50352
5.5123
5.52104
5.52631
5.52401
5.51037
5.48279
5.43069
5.33706
5.21676
5.13467
5.13733
5.17733
5.21771
1096.43
1026.61
5.21094
5.38086
5.51817
5.64025
5.73044
5.78173
5.79796
5.79065
5.76818
5.73476
5.69446
5.65248
5.61281
5.57815
5.55035
5.5301
5.51756
5.51242
5.51375
5.52007
5.52922
5.5385
5.54428
5.54235
5.5284
5.49958
5.4452
5.34736
5.22255
5.13773
5.13764
5.17441
5.21123
1096.41
1026.61
5.22419
5.40072
5.54071
5.66186
5.7475
5.7953
5.81323
5.81077
5.79322
5.76355
5.72451
5.68175
5.64003
5.60278
5.57245
5.55015
5.53608
5.53009
5.53117
5.53796
5.54831
5.55914
5.5666
5.56643
5.55386
5.5255
5.46943
5.36503
5.23195
5.14072
5.13948
5.17236
5.20003
1096.38
1026.62
5.25101
5.43928
5.58795
5.71713
5.80796
5.85625
5.87047
5.86248
5.83955
5.80478
5.76111
5.71406
5.66847
5.62784
5.59462
5.56988
5.55401
5.54678
5.54738
5.55425
5.56509
5.57666
5.58459
5.58388
5.56979
5.53947
5.48175
5.37608
5.23948
5.1405
5.13404
5.16331
5.19004
1096.38
1026.63
5.26653
5.46073
5.616
5.75264
5.85037
5.9025
5.91609
5.90422
5.87696
5.83774
5.78947
5.73817
5.68873
5.64472
5.60859
5.58161
5.56427
5.55635
5.55706
5.56481
5.57713
5.59044
5.59988
5.60016
5.58626
5.55538
5.49549
5.38497
5.24037
5.13572
5.12854
5.15561
5.17704
1096.35
1026.68
5.29235
5.48224
5.63589
5.7759
5.88086
5.93947
5.9571
5.94731
5.91841
5.87483
5.82209
5.76684
5.71368
5.66601
5.62645
5.59635
5.57629
5.56612
5.56517
5.57195
5.5841
5.59813
5.6092
5.61184
5.60205
5.57571
5.52167
5.41985
5.27337
5.14668
5.12105
5.14098
5.16111
1096.34
1026.69
5.30378
5.50181
5.66039
5.80178
5.90307
5.95636
5.97191
5.96271
5.93494
5.89226
5.83906
5.78234
5.7277
5.67871
5.638
5.60707
5.58648
5.57607
5.57512
5.58209
5.59456
5.60898
5.62071
5.62449
5.61633
5.59221
5.54127
5.44275
5.29849
5.16967
5.12924
5.13855
5.15318
1096.33
1026.7
5.31341
5.51512
5.68025
5.82484
5.92571
5.97837
5.99324
5.98319
5.95493
5.91219
5.85905
5.80214
5.74658
5.69636
5.65431
5.62221
5.60067
5.58953
5.58803
5.59461
5.6067
5.62073
5.63187
5.63468
5.62487
5.59928
5.54805
5.45267
5.31016
5.17538
5.13193
5.13773
5.15343
1096.33
1026.69
5.31607
5.52688
5.69669
5.84282
5.94584
5.99845
6.0135
6.0046
5.97833
5.93773
5.88557
5.82781
5.77024
5.71754
5.67308
5.63902
5.61618
5.60448
5.6031
5.61023
5.62332
5.63847
5.65059
5.6541
5.6447
5.61935
5.56759
5.46692
5.32464
5.19455
5.14526
5.14502
5.15642
1096.34
1026.7
5.31783
5.53553
5.71486
5.87552
5.98524
6.03651
6.04727
6.03467
6.00425
5.95921
5.90238
5.84027
5.77915
5.72398
5.67823
5.64399
5.62186
5.61146
5.61172
5.62061
5.63509
5.65109
5.66325
5.66586
5.65457
5.62659
5.56912
5.45995
5.30642
5.16943
5.13427
5.1405
5.14897
1096.31
1026.73
5.31654
5.51905
5.70645
5.87712
5.99641
6.06166
6.08158
6.06672
6.03194
5.98196
5.92046
5.85483
5.79149
5.73518
5.68911
5.65506
5.63342
5.62366
5.62461
5.63422
5.64954
5.66657
5.67992
5.68366
5.67341
5.64396
5.58494
5.47739
5.32937
5.1954
5.14228
5.14014
5.14668
1096.31
1026.69
5.27274
5.48068
5.66923
5.84589
5.98059
6.06181
6.09277
6.08811
6.0565
6.00549
5.94178
5.87405
5.80841
5.74981
5.70166
5.66588
5.64303
5.63269
5.63347
5.64316
5.6585
5.6752
5.68761
5.68973
5.67683
5.64546
5.58231
5.46548
5.30741
5.17272
5.13456
5.1365
5.1424
1096.3
1026.66
5.26442
5.47502
5.66327
5.83983
5.97473
6.05749
6.09316
6.09265
6.06601
6.01926
5.9573
5.88839
5.82006
5.759
5.70882
5.67135
5.64716
5.63625
5.63699
5.64744
5.66437
5.68341
5.69865
5.70335
5.69221
5.66093
5.596
5.47463
5.31011
5.16911
5.12522
5.12553
5.11873
1096.24
1026.65
5.26065
5.46908
5.65718
5.83794
5.97807
6.06349
6.10021
6.10083
6.07485
6.02801
5.96607
5.89768
5.82997
5.76823
5.71692
5.67858
5.6532
5.64061
5.63974
5.64889
5.66512
5.68428
5.70145
5.71016
5.70531
5.683
5.63335
5.53376
5.3729
5.2056
5.125
5.10332
5.08872
1096.21
1026.64
5.25967
5.46795
5.64442
5.82119
5.96108
6.04334
6.07797
6.08021
6.05777
6.01561
5.95842
5.89423
5.8305
5.77117
5.72005
5.68141
5.65574
5.64237
5.6408
5.64952
5.66611
5.6847
5.7025
5.71276
5.70974
5.68949
5.64211
5.54535
5.38836
5.21843
5.12764
5.09772
5.08344
1096.22
1026.64
5.26172
5.46773
5.63939
5.81162
5.9457
6.02486
6.05619
6.05843
6.03917
6.00167
5.94932
5.88909
5.82785
5.77135
5.72326
5.68481
5.65898
5.64494
5.64261
5.6508
5.66746
5.68712
5.70673
5.71972
5.72002
5.70341
5.66031
5.56808
5.41285
5.23555
5.12985
5.09198
5.07527
1096.21
1026.65
5.2718
5.47375
5.64456
5.80773
5.94283
6.02595
6.05921
6.06075
6.04064
6.00329
5.95127
5.89114
5.82984
5.77222
5.72505
5.68696
5.66148
5.64812
5.64652
5.65524
5.67203
5.69318
5.71343
5.72657
5.7268
5.71196
5.67321
5.59283
5.45
5.27136
5.14247
5.08995
5.07041
1096.21
1026.67
5.2871
5.48708
5.65269
5.81098
5.93379
6.0178
6.05978
6.06645
6.04359
6.0012
5.94897
5.89096
5.83211
5.77604
5.72822
5.69067
5.66502
5.65157
5.6499
5.65828
5.67494
5.69582
5.71575
5.72887
5.72921
5.715
5.67699
5.5977
5.46335
5.29858
5.1681
5.10002
5.07732
1096.24
1026.7
5.33009
5.52972
5.68268
5.81908
5.92599
5.99437
6.03351
6.04169
6.02807
5.99643
5.94993
5.89173
5.8325
5.77771
5.73068
5.69432
5.66988
5.65769
5.65739
5.66725
5.68457
5.70516
5.72347
5.73345
5.73107
5.71403
5.67306
5.58997
5.45603
5.30175
5.1902
5.13428
5.11643
1096.29
1026.73
5.37341
5.57992
5.73181
5.85953
5.95167
6.00787
6.03496
6.04019
6.02578
5.99444
5.94761
5.89279
5.83539
5.7816
5.73552
5.70005
5.67631
5.66436
5.66375
5.67283
5.68912
5.70838
5.72504
5.73304
5.72774
5.70498
5.65607
5.56141
5.41752
5.2676
5.18265
5.13987
5.11784
1096.27
1026.79
5.4128
5.62034
5.77419
5.90514
6.00113
6.05565
6.07452
6.06946
6.04618
6.00833
5.95851
5.90146
5.84334
5.78911
5.743
5.70758
5.6838
5.67164
5.67056
5.6788
5.69392
5.71176
5.72706
5.73361
5.72697
5.70356
5.65273
5.55551
5.40894
5.25392
5.16753
5.13155
5.10277
1096.22
1026.85
5.4395
5.64895
5.80458
5.93365
6.02794
6.08039
6.09599
6.08576
6.05742
6.01568
5.96211
5.90143
5.84201
5.78877
5.74533
5.71298
5.69188
5.68112
5.68062
5.68791
5.70104
5.71641
5.72947
5.73494
5.72843
5.70559
5.65747
5.56675
5.4272
5.27102
5.16791
5.12487
5.10305
1096.27
1026.91
5.46807
5.67609
5.8316
5.95672
6.04456
6.08961
6.09985
6.0871
6.0572
6.01355
5.95885
5.90035
5.8427
5.79062
5.74896
5.71889
5.70038
5.6917
5.69292
5.70169
5.71477
5.72867
5.73858
5.73911
5.72706
5.69822
5.64072
5.53916
5.40654
5.27126
5.18506
5.1486
5.14523
1096.35
1026.93
5.48668
5.70019
5.86153
5.99305
6.07496
6.10934
6.1095
6.08832
6.05111
6.00222
5.94328
5.88227
5.82615
5.77973
5.74263
5.71623
5.69913
5.69323
5.69677
5.70736
5.72132
5.7346
5.74188
5.73773
5.71728
5.67278
5.59161
5.46432
5.30912
5.19136
5.16049
5.14984
5.14243
1096.3
1026.94
5.49792
5.71709
5.89083
6.03227
6.1136
6.13493
6.12145
6.09141
6.05077
6.00035
5.94184
5.88133
5.82519
5.77894
5.7411
5.7156
5.70161
5.69811
5.70332
5.71474
5.72903
5.74185
5.74755
5.7403
5.71589
5.66754
5.58291
5.45116
5.28642
5.15419
5.12221
5.12126
5.09714
1096.19
1026.95
5.49722
5.71026
5.90198
6.0566
6.15072
6.1778
6.15254
6.10802
6.05938
6.00415
5.94379
5.88489
5.83008
5.78323
5.7457
5.72099
5.70771
5.70464
5.71014
5.72124
5.73566
5.74876
5.75455
5.74783
5.72359
5.67747
5.59747
5.46539
5.29955
5.15644
5.10076
5.0875
5.06929
1096.2
1026.98
5.49658
5.69816
5.87106
6.03848
6.15465
6.19562
6.18866
6.15646
6.10668
6.04631
5.98126
5.91736
5.85893
5.80877
5.76844
5.73865
5.72006
5.71299
5.71633
5.72609
5.74025
5.75304
5.7582
5.75064
5.7246
5.67706
5.59501
5.45566
5.27599
5.13157
5.09002
5.07658
5.061
1096.17
1026.89
5.4852
5.70143
5.86638
6.01321
6.11538
6.17333
6.18783
6.17459
6.14123
6.09188
6.03179
5.96735
5.90408
5.84615
5.79622
5.7565
5.72885
5.71449
5.71387
5.7206
5.73227
5.74792
5.75912
5.75847
5.74111
5.70148
5.62412
5.47698
5.26873
5.09203
5.03022
5.02582
4.99335
1096.07
1026.85
5.48806
5.72251
5.88826
6.02421
6.12335
6.17671
6.19089
6.17994
6.15137
6.10731
6.05118
5.98886
5.92599
5.86671
5.81438
5.77155
5.73996
5.72044
5.7132
5.71709
5.72819
5.74287
5.75551
5.75863
5.74704
5.71739
5.6625
5.56654
5.397
5.1766
5.02401
4.97456
4.94307
1096.05
1026.89
5.52357
5.78365
5.97785
6.12852
6.22495
6.26279
6.25986
6.23677
6.20151
6.1535
6.09281
6.02454
5.95489
5.88921
5.83185
5.78546
5.75114
5.72903
5.71871
5.71928
5.72869
5.74102
5.75262
5.75654
5.74762
5.72143
5.66972
5.58321
5.44052
5.24693
5.06203
4.96826
4.93514
1096.07
1026.95
5.52407
5.78469
5.99575
6.17974
6.3073
6.35782
6.34923
6.3112
6.25896
6.19368
6.11888
6.04146
5.96664
5.89873
5.8407
5.79403
5.75936
5.73629
5.72434
5.72293
5.72868
5.73754
5.74616
5.74833
5.73889
5.71405
5.66674
5.58185
5.44631
5.26576
5.09538
4.99594
4.95089
1096.09
1026.97
5.49655
5.75176
5.98183
6.18279
6.31706
6.36838
6.3583
6.3195
6.26494
6.19723
6.12035
6.04149
5.96635
5.89928
5.84323
5.79757
5.76308
5.73949
5.72589
5.72032
5.72194
5.72798
5.73337
5.73199
5.71825
5.68974
5.64032
5.56003
5.43215
5.25937
5.09312
4.99943
4.95541
1096.09
1027.01
5.4749
5.70577
5.93734
6.16257
6.31522
6.38111
6.38273
6.34869
6.29429
6.22277
6.14012
6.05444
5.97245
5.8991
5.83707
5.78661
5.74792
5.72066
5.70392
5.69611
5.69486
5.69705
5.69846
5.69449
5.68127
5.65719
5.61648
5.54607
5.43093
5.2718
5.11652
5.01889
4.96988
1096.11
1026.95
5.41217
5.61998
5.82554
6.05046
6.23149
6.33499
6.36402
6.34432
6.29413
6.2228
6.13993
6.05434
5.97236
5.89819
5.83351
5.78127
5.74149
5.71348
5.69611
5.68771
5.68631
5.68945
5.69283
5.6908
5.67799
5.65008
5.59979
5.51629
5.39038
5.23684
5.10584
5.02754
4.99035
1096.14
1026.89
5.40409
5.60441
5.77012
5.92238
6.06604
6.16975
6.22127
6.22697
6.19884
6.14449
6.07462
5.99821
5.92341
5.85536
5.79728
5.75042
5.71549
5.69202
5.67882
5.6739
5.67459
5.67764
5.67906
5.6739
5.65731
5.62581
5.57174
5.4834
5.35369
5.20158
5.0849
5.02287
4.98837
1096.13
1026.83
5.39296
5.59998
5.76234
5.91
6.02233
6.08845
6.11549
6.11404
6.09105
6.05042
5.99654
5.93662
5.87503
5.81689
5.76631
5.7256
5.69484
5.67427
5.66381
5.66183
5.66563
5.67205
5.67594
5.67155
5.6544
5.62078
5.56194
5.46368
5.32013
5.16231
5.05585
5.00586
4.98017
1096.13
1026.82
5.39122
5.59955
5.76446
5.91324
6.02347
6.08661
6.10989
6.106
6.08229
6.0422
5.98899
5.92787
5.86652
5.80943
5.76002
5.71964
5.68964
5.66968
5.66004
5.65889
5.66337
5.66989
5.67368
5.66898
5.65082
5.61675
5.55638
5.45205
5.29932
5.13617
5.03922
4.9976
4.975
1096.13
1026.82
5.38957
5.60231
5.77651
5.93764
6.05656
6.12104
6.13917
6.12779
6.09658
6.05026
5.99254
5.93034
5.86808
5.81103
5.76145
5.72093
5.68997
5.66832
5.65551
5.65281
5.65668
5.66325
5.66745
5.66371
5.64711
5.61401
5.55457
5.45104
5.29641
5.12216
5.01076
4.97249
4.95808
1096.13
1026.83
5.39245
5.60582
5.78079
5.94261
6.0655
6.13721
6.1622
6.15416
6.12326
6.07371
6.01145
5.9441
5.87735
5.81604
5.76307
5.72017
5.68822
5.66684
5.6533
5.64875
5.65109
5.65709
5.66204
5.66023
5.64606
5.61597
5.56273
5.47288
5.33253
5.16343
5.02494
4.96904
4.95156
1096.12
1026.83
5.3948
5.6103
5.784
5.94403
6.06799
6.1405
6.16608
6.15879
6.12787
6.07829
6.01548
5.94774
5.88115
5.82011
5.76731
5.72392
5.69019
5.66682
5.65162
5.64478
5.64442
5.64784
5.65119
5.64953
5.63811
5.61321
5.56708
5.4844
5.35012
5.17832
5.03332
4.96813
4.94974
1096.13
1026.82
5.38301
5.59898
5.77746
5.94091
6.06351
6.1352
6.16106
6.15478
6.12548
6.0772
6.01591
5.94976
5.88416
5.82332
5.77041
5.72719
5.69251
5.6665
5.64839
5.63909
5.63704
5.63938
5.64227
5.6409
5.62982
5.60562
5.56125
5.48057
5.34579
5.17696
5.03713
4.97313
4.9547
1096.14
1026.82
5.38371
5.60189
5.78045
5.94468
6.07164
6.14383
6.1675
6.15916
6.12933
6.08244
6.02301
5.95696
5.8898
5.82608
5.76911
5.72097
5.68224
5.65355
5.63505
5.6259
5.62425
5.62718
5.63085
5.62985
5.61881
5.59513
5.55231
5.47494
5.34762
5.18331
5.04162
4.97488
4.95491
1096.14
1026.83
5.38264
5.6025
5.78335
5.95065
6.0785
6.15271
6.1781
6.16963
6.13857
6.0902
6.02867
5.96067
5.89205
5.82727
5.76915
5.71863
5.6778
5.64768
5.62765
5.61661
5.61356
5.61569
5.6191
5.61887
5.60965
5.58832
5.5486
5.47422
5.35003
5.18933
5.04921
4.98108
4.95618
1096.14
1026.8
5.36565
5.58477
5.76441
5.93569
6.07131
6.15059
6.17769
6.16833
6.13501
6.08382
6.01912
5.94843
5.87788
5.81209
5.75417
5.70597
5.66899
5.63999
5.61968
5.60736
5.60141
5.60127
5.6032
5.60202
5.59254
5.57145
5.53338
5.46474
5.34622
5.18707
5.05156
4.99005
4.97061
1096.17
1026.79
5.36596
5.58653
5.76125
5.91807
6.04331
6.12054
6.14946
6.14253
6.11131
6.06181
5.99948
5.93168
5.86455
5.80254
5.74833
5.70306
5.66719
5.63895
5.61884
5.60653
5.59992
5.5989
5.59945
5.59656
5.58585
5.56408
5.52547
5.45586
5.3368
5.18344
5.05628
4.99649
4.98254
1096.18
1026.78
5.36834
5.5839
5.75657
5.91666
6.0344
6.10391
6.13006
6.12389
6.09486
6.04863
5.9898
5.92526
5.86054
5.80055
5.74828
5.70305
5.66588
5.63735
5.61739
5.60519
5.59838
5.59512
5.59299
5.58797
5.57521
5.55174
5.51094
5.43763
5.31219
5.15226
5.02936
4.98504
4.97246
1096.16
1026.78
5.37188
5.59372
5.76446
5.91739
6.03401
6.10022
6.12197
6.11253
6.08343
6.0387
5.98215
5.91999
5.85871
5.79932
5.74794
5.7035
5.667
5.63876
5.61785
5.60477
5.5983
5.59437
5.59225
5.5873
5.57458
5.55158
5.51149
5.4379
5.3182
5.16886
5.03799
4.98307
4.97116
1096.18
1026.79
5.38601
5.61588
5.78772
5.93427
6.04004
6.10042
6.121
6.11205
6.08272
6.038
5.98165
5.91975
5.85699
5.79918
5.74703
5.7026
5.66648
5.63785
5.61788
5.60497
5.59811
5.59351
5.58783
5.57853
5.56145
5.53508
5.49282
5.42115
5.3115
5.1774
5.06369
5.00659
4.99959
1096.27
1026.79
5.38977
5.62915
5.81136
5.9604
6.06179
6.11316
6.12657
6.11547
6.08553
6.04026
5.98351
5.92186
5.85956
5.80065
5.74821
5.70376
5.66783
5.64036
5.62084
5.60798
5.59981
5.5937
5.58577
5.57266
5.54973
5.51572
5.46177
5.37185
5.24696
5.12652
5.05452
5.02661
5.0371
1096.3
1026.78
5.37267
5.62303
5.82016
5.984
6.08458
6.12784
6.1321
6.11493
6.08236
6.03549
5.97697
5.91155
5.84625
5.78526
5.73122
5.6853
5.64834
5.61999
5.5997
5.58644
5.57843
5.57303
5.56686
5.55562
5.53465
5.50036
5.44439
5.34821
5.21127
5.0844
5.03693
5.03153
5.03243
1096.25
1026.78
5.35022
5.60146
5.8153
5.99324
6.11427
6.16657
6.16783
6.13971
6.09691
6.04281
5.9794
5.91284
5.8468
5.78537
5.73106
5.68537
5.6486
5.62012
5.59882
5.58513
5.57682
5.57123
5.56493
5.55368
5.5329
5.50015
5.44876
5.35442
5.20965
5.0654
5.00295
4.99886
5.00041
1096.21
1026.75
5.31519
5.564
5.78476
5.98183
6.11546
6.18254
6.19912
6.18149
6.14006
6.08097
6.01073
5.9366
5.86427
5.79781
5.73947
5.69025
5.65051
5.61969
5.59708
5.58161
5.57163
5.56503
5.55873
5.54877
5.53029
5.50056
5.45152
5.37154
5.24325
5.09155
4.99988
4.98633
4.997
1096.24
1026.72
5.29865
5.53422
5.74176
5.94178
6.0931
6.17695
6.20114
6.18595
6.14488
6.08544
6.01486
5.9407
5.86869
5.80268
5.74483
5.69582
5.65563
5.62342
5.59795
5.57968
5.56733
5.55865
5.5507
5.53981
5.5221
5.49547
5.45286
5.37726
5.25944
5.12416
5.03181
5.00205
5.01799
1096.31
1026.7
5.29671
5.52848
5.7216
5.89621
6.03548
6.12177
6.1565
6.15234
6.12029
6.06707
6.00106
5.92977
5.85916
5.79351
5.73558
5.68656
5.64657
5.61514
5.59151
5.57416
5.56125
5.55074
5.54018
5.52647
5.50617
5.4776
5.43376
5.35977
5.24356
5.11047
5.03036
5.01388
5.03296
1096.32
1026.68
5.28956
5.52547
5.71712
5.88964
6.02018
6.09598
6.12303
6.11643
6.08659
6.03878
5.97897
5.91368
5.84805
5.78563
5.72896
5.67949
5.63811
5.6048
5.57896
5.5596
5.54529
5.5342
5.52403
5.51152
5.49223
5.46416
5.42041
5.34594
5.23163
5.10566
5.03525
5.02345
5.03939
1096.31
1026.67
5.29082
5.52888
5.71956
5.88976
6.01932
6.09512
6.12177
6.11454
6.08409
6.03597
5.97599
5.91034
5.84414
5.78112
5.7239
5.67383
5.63164