/*--------------------------------*- C++ -*----------------------------------*\
| =========                 |                                                 |
| \\      /  F ield         | OpenFOAM: The Open Source CFD Toolbox           |
|  \\    /   O peration     | Version:  2.0.x                                 |
|   \\  /    A nd           | Web:      www.OpenFOAM.org                      |
|    \\/     M anipulation  |                                                 |
\*---------------------------------------------------------------------------*/
FoamFile
{
    version     2.0;
    format      ascii;
    class       surfaceScalarField;
    location    "50";
    object      phi;
}
// * * * * * * * * * * * * * * * * * * * * * * * * * * * * * * * * * * * * * //

dimensions      [1 0 -1 0 0 0 0];

internalField   nonuniform List<scalar> 
228225
(
1.06462e-05
-1.83701e-06
-2.45937e-07
1.37239e-05
-2.92977e-06
-1.55172e-07
1.57492e-05
-1.67927e-06
-3.53849e-07
1.68838e-05
-6.87591e-07
-4.51418e-07
1.75422e-05
-1.15998e-07
-5.40419e-07
1.82667e-05
-7.08835e-08
-6.44049e-07
1.88725e-05
1.53915e-07
-7.42245e-07
1.93968e-05
3.28769e-07
-8.30192e-07
2.00027e-05
3.00216e-07
-8.7944e-07
2.06862e-05
2.81007e-07
-9.33226e-07
2.12054e-05
4.79106e-07
-9.6147e-07
2.12267e-05
9.19464e-07
-9.02903e-07
2.08688e-05
1.25424e-06
-8.59302e-07
2.01834e-05
1.51581e-06
-7.95576e-07
1.9292e-05
1.65274e-06
-7.30167e-07
1.82875e-05
1.69835e-06
-6.67826e-07
1.72452e-05
1.6686e-06
-6.05611e-07
1.62261e-05
1.57289e-06
-5.39137e-07
1.52721e-05
1.43267e-06
-4.70405e-07
1.44254e-05
1.2521e-06
-4.03826e-07
1.36649e-05
1.09751e-06
-3.42139e-07
1.29884e-05
9.51414e-07
-2.86571e-07
1.24096e-05
7.98874e-07
-2.38155e-07
1.19139e-05
6.68278e-07
-1.97252e-07
1.15005e-05
5.48514e-07
-1.65925e-07
1.11543e-05
4.52524e-07
-1.42664e-07
1.08553e-05
3.85761e-07
-1.27249e-07
1.05668e-05
3.63351e-07
-1.21392e-07
1.02284e-05
3.99188e-07
-1.16548e-07
9.79745e-06
4.84816e-07
-1.1071e-07
9.19961e-06
6.44302e-07
-1.02517e-07
8.18765e-06
1.0296e-06
-9.0671e-08
6.26505e-06
1.88618e-06
-8.88183e-08
3.14782e-06
3.07953e-06
-8.15021e-08
3.18505e-06
-4.06846e-08
-5.13535e-07
-1.86171e-06
3.95175e-07
7.33062e-08
-4.0275e-06
3.21231e-07
8.79428e-07
-3.10986e-06
3.47323e-07
1.60103e-06
-2.0341e-06
3.07955e-07
1.79087e-06
-8.53361e-07
2.57179e-07
1.44272e-06
-1.54672e-07
1.86653e-07
6.58262e-07
5.00455e-07
1.82725e-07
-3.13106e-07
8.18564e-07
2.16478e-07
-1.13695e-06
7.20181e-07
1.90601e-07
-1.55073e-06
4.33378e-07
9.57214e-08
-1.47307e-06
2.60521e-07
-3.94932e-08
-9.96893e-07
4.21191e-07
-1.75557e-07
-2.8013e-07
5.7471e-07
-2.23719e-07
6.78929e-07
6.50331e-07
-2.68457e-07
1.79616e-06
7.01454e-07
-3.32099e-07
2.9811e-06
7.16349e-07
-3.61067e-07
4.1902e-06
6.65179e-07
-3.56627e-07
5.33332e-06
6.19933e-07
-3.3467e-07
6.33784e-06
5.99416e-07
-2.9834e-07
7.20682e-06
5.20006e-07
-2.47699e-07
7.93436e-06
4.5584e-07
-1.97121e-07
8.51876e-06
3.91856e-07
-1.38115e-07
8.97022e-06
3.22624e-07
-8.48769e-08
9.2845e-06
2.75288e-07
-3.11186e-08
9.43568e-06
2.66645e-07
1.61679e-08
9.42871e-06
3.01463e-07
5.19998e-08
9.30473e-06
3.3748e-07
8.84082e-08
9.09184e-06
3.92042e-07
1.07102e-07
8.75888e-06
5.26444e-07
1.17087e-07
8.2696e-06
7.52978e-07
1.12155e-07
7.48792e-06
1.21014e-06
8.70035e-08
6.19825e-06
2.13229e-06
5.63247e-08
4.156e-06
3.77764e-06
1.10324e-08
1.63875e-06
5.4873e-06
-2.36018e-08
4.84237e-06
-2.20633e-08
1.2533e-07
-2.24949e-06
1.63934e-07
1.75249e-07
-4.38791e-06
2.07518e-07
1.52541e-06
-4.78042e-06
2.30214e-07
3.41019e-06
-4.26237e-06
2.50264e-07
5.29722e-06
-3.14244e-06
3.00072e-07
6.75559e-06
-2.09765e-06
3.74361e-07
7.79241e-06
-1.08289e-06
4.33524e-07
8.29866e-06
-2.68939e-07
4.73482e-07
8.25732e-06
1.74587e-07
4.98819e-07
7.92571e-06
2.02649e-07
4.9923e-07
7.5226e-06
1.34496e-07
4.76065e-07
7.28147e-06
1.60948e-07
4.42622e-07
7.14352e-06
2.50258e-07
3.97974e-07
7.11711e-06
2.70203e-07
3.39143e-07
7.16433e-06
2.99251e-07
2.84265e-07
7.26669e-06
2.99727e-07
2.47763e-07
7.43581e-06
2.26267e-07
2.09732e-07
7.65861e-06
1.48024e-07
1.83864e-07
7.8795e-06
1.38467e-07
1.68864e-07
8.03391e-06
1.32472e-07
1.58877e-07
8.1149e-06
1.39584e-07
1.54415e-07
8.15055e-06
1.12089e-07
1.53552e-07
8.16635e-06
6.48222e-08
1.54233e-07
8.17864e-06
3.42939e-08
1.55541e-07
8.1857e-06
3.20559e-08
1.55451e-07
8.16e-06
8.34761e-08
1.56252e-07
8.06055e-06
1.81652e-07
1.57668e-07
7.85641e-06
3.36439e-07
1.58153e-07
7.52908e-06
5.88152e-07
1.52095e-07
7.01082e-06
9.94801e-07
1.43603e-07
6.13239e-06
1.82096e-06
1.25283e-07
4.70225e-06
3.34291e-06
9.39489e-08
2.72306e-06
5.58849e-06
4.53044e-08
8.83109e-07
7.20068e-06
3.02103e-10
5.7409e-06
-1.80188e-08
3.64918e-07
-2.80712e-06
3.59398e-09
1.01474e-06
-5.16178e-06
-2.74657e-08
1.71566e-06
-5.56704e-06
-3.93901e-08
2.46976e-06
-5.14449e-06
-1.87544e-08
3.4471e-06
-4.31054e-06
2.50838e-08
4.49006e-06
-3.36319e-06
6.56611e-08
5.59229e-06
-2.44359e-06
1.13116e-07
6.57915e-06
-1.56859e-06
1.73479e-07
7.26027e-06
-8.53294e-07
2.25085e-07
7.53662e-06
-4.25758e-07
2.5604e-07
7.47586e-06
-1.5781e-07
2.70839e-07
7.29531e-06
-1.56398e-08
2.72113e-07
7.1584e-06
4.12674e-08
2.57601e-07
7.04907e-06
5.74117e-08
2.3575e-07
6.98541e-06
6.66384e-08
2.11354e-07
6.96092e-06
4.96093e-08
1.88651e-07
6.92571e-06
1.19509e-08
1.68972e-07
6.88514e-06
-3.29755e-08
1.53887e-07
6.88406e-06
-6.66526e-08
1.46351e-07
6.90971e-06
-9.84243e-08
1.42577e-07
6.95483e-06
-1.20222e-07
1.41613e-07
6.99622e-06
-1.49846e-07
1.42517e-07
7.01753e-06
-1.79171e-07
1.46858e-07
7.02366e-06
-2.00564e-07
1.52928e-07
7.02646e-06
-2.07329e-07
1.59814e-07
7.02283e-06
-1.5676e-07
1.67336e-07
6.97912e-06
-2.59181e-08
1.73926e-07
6.85909e-06
1.95779e-07
1.7731e-07
6.62779e-06
5.46756e-07
1.77179e-07
6.15624e-06
1.18866e-06
1.71945e-07
5.25849e-06
2.458e-06
1.5785e-07
3.83206e-06
4.55922e-06
1.26143e-07
2.07874e-06
7.18441e-06
7.68712e-08
6.17665e-07
8.54445e-06
2.90976e-08
6.36108e-06
-4.23186e-09
2.4892e-07
-3.16137e-06
-1.01326e-08
5.09676e-07
-5.52159e-06
6.83538e-09
6.44433e-07
-5.80643e-06
1.96728e-08
6.8465e-07
-5.28697e-06
1.89092e-08
6.53912e-07
-4.36743e-06
5.7345e-09
6.34298e-07
-3.44102e-06
1.07701e-08
7.15264e-07
-2.64245e-06
2.85858e-08
9.93586e-07
-1.98879e-06
5.57021e-08
1.46284e-06
-1.48501e-06
8.39689e-08
1.98151e-06
-1.12138e-06
1.06199e-07
2.50651e-06
-8.68746e-07
1.18083e-07
2.99834e-06
-6.93745e-07
1.22194e-07
3.44628e-06
-5.89591e-07
1.22124e-07
3.85386e-06
-5.32518e-07
1.18791e-07
4.23169e-06
-4.91918e-07
1.15076e-07
4.57249e-06
-4.67034e-07
1.13278e-07
4.87004e-06
-4.5735e-07
1.13286e-07
5.12494e-06
-4.58968e-07
1.15421e-07
5.34688e-06
-4.63135e-07
1.19847e-07
5.53509e-06
-4.68952e-07
1.26172e-07
5.70184e-06
-4.78471e-07
1.33997e-07
5.84027e-06
-4.89579e-07
1.43265e-07
5.94616e-06
-4.97894e-07
1.53643e-07
6.02334e-06
-5.0395e-07
1.64759e-07
6.07879e-06
-4.96069e-07
1.76131e-07
6.11951e-06
-4.34053e-07
1.88777e-07
6.12403e-06
-2.77771e-07
1.99996e-07
6.02282e-06
3.11647e-08
2.0713e-07
5.78891e-06
4.97332e-07
2.11114e-07
5.26145e-06
1.42885e-06
2.11511e-07
4.28843e-06
3.16365e-06
1.99946e-07
2.91545e-06
5.71231e-06
1.67239e-07
1.49708e-06
8.44089e-06
1.14653e-07
3.91254e-07
9.53558e-06
5.94648e-08
6.73906e-06
1.17264e-08
8.27502e-08
-3.24853e-06
8.95975e-09
1.34308e-07
-5.6048e-06
3.91771e-08
1.20968e-07
-5.83568e-06
5.24897e-08
4.80913e-08
-5.25559e-06
5.32183e-08
-1.93906e-08
-4.32824e-06
4.11095e-08
-5.90004e-08
-3.4125e-06
2.381e-08
-4.65426e-08
-2.65694e-06
1.36024e-08
5.87087e-08
-2.09732e-06
1.24144e-08
2.71991e-07
-1.71221e-06
2.05073e-08
5.73122e-07
-1.45193e-06
3.37058e-08
9.26403e-07
-1.2671e-06
4.73669e-08
1.30741e-06
-1.13452e-06
5.97637e-08
1.68759e-06
-1.0416e-06
6.91707e-08
2.0524e-06
-9.79631e-07
7.67524e-08
2.40862e-06
-9.4044e-07
8.40435e-08
2.757e-06
-9.17386e-07
9.06417e-08
3.08584e-06
-8.98202e-07
9.76854e-08
3.39006e-06
-8.86413e-07
1.06097e-07
3.67676e-06
-8.85257e-07
1.15547e-07
3.94605e-06
-8.87221e-07
1.261e-07
4.19658e-06
-8.92447e-07
1.37684e-07
4.42338e-06
-8.95785e-07
1.50397e-07
4.62527e-06
-8.95877e-07
1.63989e-07
4.79334e-06
-8.81747e-07
1.78093e-07
4.91463e-06
-8.41105e-07
1.92999e-07
4.99391e-06
-7.55885e-07
2.06734e-07
5.026e-06
-5.7093e-07
2.19815e-07
4.9291e-06
-1.52738e-07
2.3377e-07
4.64064e-06
4.81888e-07
2.45149e-07
4.08716e-06
1.66775e-06
2.50698e-07
3.19151e-06
3.75822e-06
2.44476e-07
2.07214e-06
6.57132e-06
2.1565e-07
1.02406e-06
9.27992e-06
1.64508e-07
2.40815e-07
1.0165e-05
1.0108e-07
6.94839e-06
3.06189e-08
3.8621e-08
-3.31034e-06
6.97944e-08
1.58537e-08
-5.71004e-06
1.69111e-07
-9.19733e-08
-5.90537e-06
2.17413e-07
-2.37787e-07
-5.29215e-06
2.24799e-07
-3.59458e-07
-4.36746e-06
2.05797e-07
-4.17589e-07
-3.48473e-06
1.75401e-07
-3.88155e-07
-2.78964e-06
1.45457e-07
-2.67029e-07
-2.30308e-06
1.21878e-07
-6.83532e-08
-1.98559e-06
1.0754e-07
1.80671e-07
-1.77299e-06
1.01805e-07
4.63536e-07
-1.62462e-06
1.02007e-07
7.69159e-07
-1.52048e-06
1.05081e-07
1.08748e-06
-1.44714e-06
1.09179e-07
1.40896e-06
-1.39571e-06
1.13663e-07
1.7277e-06
-1.3613e-06
1.18334e-07
2.03901e-06
-1.3396e-06
1.23654e-07
2.34142e-06
-1.32152e-06
1.3028e-07
2.63684e-06
-1.31307e-06
1.37769e-07
2.92252e-06
-1.3135e-06
1.46349e-07
3.19345e-06
-1.31364e-06
1.56398e-07
3.44631e-06
-1.31476e-06
1.67604e-07
3.67929e-06
-1.31328e-06
1.79955e-07
3.88533e-06
-1.30176e-06
1.93283e-07
4.06119e-06
-1.27358e-06
2.07764e-07
4.20377e-06
-1.21738e-06
2.22902e-07
4.29036e-06
-1.09622e-06
2.39646e-07
4.3092e-06
-8.63321e-07
2.56765e-07
4.214e-06
-3.53129e-07
2.75632e-07
3.86744e-06
5.10136e-07
2.93657e-07
3.29052e-06
1.91316e-06
3.04964e-07
2.43086e-06
4.29255e-06
3.01634e-07
1.49368e-06
7.21327e-06
2.75603e-07
7.15815e-07
9.81133e-06
2.24896e-07
1.76311e-07
1.0526e-05
1.54053e-07
7.05961e-06
6.40168e-08
9.24427e-09
-3.36901e-06
9.83383e-08
-1.89818e-08
-5.84201e-06
2.02003e-07
-9.64406e-08
-6.04076e-06
2.52795e-07
-1.9779e-07
-5.42212e-06
2.73222e-07
-2.90175e-07
-4.50564e-06
2.74309e-07
-3.41995e-07
-3.6507e-06
2.60773e-07
-3.32151e-07
-3.00162e-06
2.41433e-07
-2.51313e-07
-2.56869e-06
2.18912e-07
-1.1036e-07
-2.29498e-06
1.98567e-07
7.47143e-08
-2.11405e-06
1.83476e-07
2.91044e-07
-1.99011e-06
1.74351e-07
5.28661e-07
-1.90416e-06
1.68699e-07
7.79459e-07
-1.843e-06
1.64985e-07
1.03603e-06
-1.79832e-06
1.63056e-07
1.292e-06
-1.76595e-06
1.62663e-07
1.5438e-06
-1.74458e-06
1.63698e-07
1.79506e-06
-1.73214e-06
1.66436e-07
2.0423e-06
-1.72758e-06
1.71049e-07
2.28182e-06
-1.73017e-06
1.77547e-07
2.51454e-06
-1.7352e-06
1.85633e-07
2.73569e-06
-1.73795e-06
1.95255e-07
2.93883e-06
-1.73275e-06
2.06407e-07
3.12135e-06
-1.7163e-06
2.19161e-07
3.28049e-06
-1.68325e-06
2.33766e-07
3.40114e-06
-1.60987e-06
2.50685e-07
3.47865e-06
-1.46958e-06
2.68878e-07
3.49452e-06
-1.20238e-06
2.89633e-07
3.42036e-06
-6.33028e-07
3.14722e-07
3.07927e-06
4.64904e-07
3.38432e-07
2.58557e-06
1.99776e-06
3.54722e-07
1.8702e-06
4.60386e-06
3.57355e-07
1.11131e-06
7.602e-06
3.34328e-07
5.16237e-07
1.00827e-05
2.83554e-07
1.12432e-07
1.0686e-05
2.0463e-07
7.0803e-06
9.09154e-08
-2.0279e-08
-3.43547e-06
1.25066e-07
-7.49026e-08
-6.00226e-06
2.47148e-07
-1.6393e-07
-6.22904e-06
3.07954e-07
-2.57398e-07
-5.63076e-06
3.34008e-07
-3.32748e-07
-4.73645e-06
3.3896e-07
-3.73488e-07
-3.90771e-06
3.29238e-07
-3.61033e-07
-3.29605e-06
3.10092e-07
-2.9025e-07
-2.904e-06
2.88754e-07
-1.72444e-07
-2.66019e-06
2.68782e-07
-1.86806e-08
-2.50097e-06
2.52545e-07
1.63252e-07
-2.39381e-06
2.39384e-07
3.66249e-07
-2.32008e-06
2.28621e-07
5.84322e-07
-2.26712e-06
2.19768e-07
8.12346e-07
-2.22753e-06
2.12786e-07
1.0461e-06
-2.19794e-06
2.07686e-07
1.2816e-06
-2.17748e-06
2.04588e-07
1.51629e-06
-2.16588e-06
2.03901e-07
1.74838e-06
-2.16291e-06
2.05755e-07
1.97568e-06
-2.16733e-06
2.10147e-07
2.19548e-06
-2.17392e-06
2.16881e-07
2.40478e-06
-2.17705e-06
2.25665e-07
2.60045e-06
-2.17077e-06
2.3623e-07
2.77969e-06
-2.15351e-06
2.49544e-07
2.93166e-06
-2.1117e-06
2.65856e-07
3.05104e-06
-2.02539e-06
2.83602e-07
3.1287e-06
-1.8662e-06
3.03146e-07
3.13863e-06
-1.56117e-06
3.27032e-07
3.04788e-06
-9.26663e-07
3.57077e-07
2.74892e-06
3.50053e-07
3.85413e-07
2.38953e-06
1.92852e-06
4.0038e-07
1.9098e-06
4.65293e-06
4.04106e-07
1.37214e-06
7.7292e-06
3.88657e-07
8.28535e-07
1.02597e-05
3.40854e-07
2.56415e-07
1.09699e-05
2.58974e-07
7.20943e-06
1.26102e-07
1.15316e-08
-3.54024e-06
1.20468e-07
2.01199e-08
-6.21739e-06
2.29088e-07
-1.21755e-09
-6.47316e-06
2.86557e-07
-4.10378e-08
-5.88855e-06
3.19125e-07
-8.18433e-08
-5.00975e-06
3.35775e-07
-1.08231e-07
-4.20036e-06
3.39297e-07
-1.09861e-07
-3.61e-06
3.33154e-07
-7.81177e-08
-3.23985e-06
3.18798e-07
-1.25627e-08
-3.01523e-06
3.02001e-07
8.79935e-08
-2.87596e-06
2.8524e-07
2.21119e-07
-2.78781e-06
2.7007e-07
3.82412e-07
-2.73037e-06
2.56435e-07
5.67214e-07
-2.69072e-06
2.44406e-07
7.70934e-07
-2.66214e-06
2.34512e-07
9.89643e-07
-2.6421e-06
2.27035e-07
1.21968e-06
-2.63022e-06
2.22122e-07
1.45837e-06
-2.627e-06
2.1965e-07
1.70257e-06
-2.63257e-06
2.20292e-07
1.94722e-06
-2.64374e-06
2.24057e-07
2.18914e-06
-2.65636e-06
2.30234e-07
2.42728e-06
-2.6665e-06
2.38846e-07
2.65991e-06
-2.66725e-06
2.49179e-07
2.88187e-06
-2.65492e-06
2.61728e-07
3.09004e-06
-2.61624e-06
2.75791e-07
3.27973e-06
-2.52771e-06
2.89325e-07
3.43986e-06
-2.35831e-06
3.02932e-07
3.5428e-06
-2.02443e-06
3.21389e-07
3.5278e-06
-1.30125e-06
3.41478e-07
3.31459e-06
1.48706e-07
3.62392e-07
2.86869e-06
1.95183e-06
3.72355e-07
2.23661e-06
4.86211e-06
3.79098e-07
1.45205e-06
8.10829e-06
3.69255e-07
6.77609e-07
1.0654e-05
3.36038e-07
1.70829e-07
1.11575e-05
2.71343e-07
7.24254e-06
1.3671e-07
2.49206e-08
-3.6612e-06
1.12997e-07
5.52029e-08
-6.44403e-06
2.10078e-07
5.25675e-08
-6.72105e-06
2.63133e-07
1.85504e-08
-6.13789e-06
2.9596e-07
-2.63508e-08
-5.26818e-06
3.15701e-07
-6.00563e-08
-4.47989e-06
3.24426e-07
-7.16001e-08
-3.91176e-06
3.22692e-07
-5.71477e-08
-3.56035e-06
3.13606e-07
-1.44025e-08
-3.35235e-06
3.00512e-07
5.82636e-08
-3.22969e-06
2.86001e-07
1.59845e-07
-3.15723e-06
2.7161e-07
2.86888e-07
-3.11326e-06
2.58358e-07
4.35574e-07
-3.08459e-06
2.46398e-07
6.01575e-07
-3.06474e-06
2.36445e-07
7.80792e-07
-3.05178e-06
2.28921e-07
9.69822e-07
-3.04635e-06
2.24106e-07
1.16584e-06
-3.0499e-06
2.22389e-07
1.36451e-06
-3.06104e-06
2.23743e-07
1.56137e-06
-3.07613e-06
2.27888e-07
1.7534e-06
-3.09238e-06
2.3468e-07
1.9384e-06
-3.10578e-06
2.43598e-07
2.11536e-06
-3.10976e-06
2.53461e-07
2.28188e-06
-3.09945e-06
2.64094e-07
2.43671e-06
-3.06111e-06
2.74501e-07
2.57775e-06
-2.9704e-06
2.84569e-07
2.69703e-06
-2.79588e-06
2.97594e-07
2.77267e-06
-2.44099e-06
3.12895e-07
2.73665e-06
-1.63219e-06
3.29801e-07
2.52271e-06
-2.28548e-08
3.46566e-07
2.00204e-06
2.0899e-06
3.48637e-07
1.35722e-06
5.13004e-06
3.43393e-07
6.9985e-07
8.40084e-06
3.30932e-07
2.22377e-07
1.07944e-05
3.04749e-07
4.69173e-08
1.10559e-05
2.45518e-07
7.15582e-06
1.32478e-07
3.43174e-08
-3.78561e-06
9.87429e-08
7.63584e-08
-6.65842e-06
1.7907e-07
8.98974e-08
-6.95396e-06
2.2531e-07
7.73586e-08
-6.37735e-06
2.57663e-07
5.93751e-08
-5.52507e-06
2.80077e-07
4.25702e-08
-4.75207e-06
2.93276e-07
2.72076e-08
-4.19183e-06
2.98612e-07
1.90338e-08
-3.84648e-06
2.96393e-07
2.86927e-08
-3.64847e-06
2.876e-07
6.19073e-08
-3.53857e-06
2.75845e-07
1.20262e-07
-3.47959e-06
2.63197e-07
2.02532e-07
-3.44783e-06
2.50393e-07
3.05592e-07
-3.42932e-06
2.38625e-07
4.25165e-07
-3.41731e-06
2.28723e-07
5.5647e-07
-3.40974e-06
2.21142e-07
6.94455e-07
-3.40773e-06
2.16558e-07
8.3398e-07
-3.41278e-06
2.15116e-07
9.70377e-07
-3.42381e-06
2.16634e-07
1.10007e-06
-3.43789e-06
2.2078e-07
1.21991e-06
-3.45211e-06
2.26987e-07
1.32806e-06
-3.46279e-06
2.34509e-07
1.42443e-06
-3.46411e-06
2.42042e-07
1.50892e-06
-3.4505e-06
2.48767e-07
1.58139e-06
-3.40723e-06
2.5421e-07
1.63974e-06
-3.31195e-06
2.6189e-07
1.6803e-06
-3.13487e-06
2.72815e-07
1.68883e-06
-2.77152e-06
2.87926e-07
1.62342e-06
-1.91721e-06
3.05768e-07
1.44414e-06
-2.17965e-07
3.23272e-07
1.04621e-06
2.10763e-06
3.26951e-07
6.31107e-07
5.17658e-06
3.23662e-07
3.44338e-07
8.35336e-06
3.06306e-07
2.02806e-07
1.06294e-05
2.76937e-07
4.35306e-08
1.09483e-05
2.25323e-07
7.06868e-06
1.29556e-07
3.56223e-08
-3.9044e-06
8.56685e-08
7.6008e-08
-6.85066e-06
1.53542e-07
9.57667e-08
-7.16567e-06
1.93202e-07
1.01946e-07
-6.60348e-06
2.20812e-07
1.01622e-07
-5.76509e-06
2.40754e-07
9.13824e-08
-4.99525e-06
2.53265e-07
7.14229e-08
-4.43207e-06
2.59517e-07
4.99639e-08
-4.08657e-06
2.60365e-07
3.68323e-08
-3.8945e-06
2.57453e-07
4.01173e-08
-3.79443e-06
2.50218e-07
6.31601e-08
-3.74635e-06
2.40657e-07
1.06525e-07
-3.72482e-06
2.29797e-07
1.69214e-07
-3.71552e-06
2.18889e-07
2.48614e-07
-3.71129e-06
2.09108e-07
3.40656e-07
-3.70965e-06
2.01523e-07
4.40434e-07
-3.71136e-06
1.96577e-07
5.42201e-07
-3.71715e-06
1.94357e-07
6.40552e-07
-3.72628e-06
1.94864e-07
7.31656e-07
-3.73714e-06
1.97832e-07
8.12608e-07
-3.74722e-06
2.02724e-07
8.82147e-07
-3.75338e-06
2.08553e-07
9.4078e-07
-3.75005e-06
2.13678e-07
9.88818e-07
-3.72964e-06
2.16215e-07
1.0287e-06
-3.67921e-06
2.16169e-07
1.06569e-06
-3.57995e-06
2.13848e-07
1.09736e-06
-3.40359e-06
2.16748e-07
1.11341e-06
-3.04232e-06
2.27254e-07
1.09092e-06
-2.17643e-06
2.42781e-07
9.97298e-07
-4.28186e-07
2.60255e-07
7.4736e-07
2.0535e-06
2.67374e-07
5.0863e-07
5.12424e-06
2.60991e-07
3.30213e-07
8.2608e-06
2.45701e-07
1.23174e-07
1.05886e-05
2.20188e-07
-1.12734e-09
1.08569e-05
1.80549e-07
6.95929e-06
1.07243e-07
2.37828e-08
-4.00483e-06
7.53337e-08
4.41103e-08
-7.00818e-06
1.3583e-07
4.71856e-08
-7.34326e-06
1.72951e-07
4.7819e-08
-6.80523e-06
1.99183e-07
4.50329e-08
-5.98223e-06
2.1755e-07
3.00262e-08
-5.21256e-06
2.29609e-07
7.49155e-10
-4.6422e-06
2.36542e-07
-3.4943e-08
-4.29186e-06
2.37948e-07
-6.67297e-08
-4.10102e-06
2.34977e-07
-8.77127e-08
-4.00607e-06
2.28823e-07
-9.4401e-08
-3.96439e-06
2.20356e-07
-8.49396e-08
-3.94952e-06
2.10239e-07
-5.91529e-08
-3.94654e-06
1.99602e-07
-1.8276e-08
-3.94796e-06
1.89484e-07
3.51582e-08
-3.95149e-06
1.81362e-07
9.69625e-08
-3.95659e-06
1.75566e-07
1.61746e-07
-3.96272e-06
1.72136e-07
2.2427e-07
-3.96942e-06
1.71085e-07
2.80561e-07
-3.97592e-06
1.72061e-07
3.2832e-07
-3.98073e-06
1.74371e-07
3.66455e-07
-3.9807e-06
1.76805e-07
3.95338e-07
-3.97011e-06
1.77717e-07
4.17193e-07
-3.94092e-06
1.74972e-07
4.34607e-07
-3.8822e-06
1.70294e-07
4.50774e-07
-3.77861e-06
1.66075e-07
4.67935e-07
-3.60551e-06
1.65414e-07
4.86239e-07
-3.25823e-06
1.71882e-07
5.08269e-07
-2.41797e-06
1.84019e-07
5.25821e-07
-6.8446e-07
1.96757e-07
4.47922e-07
1.89025e-06
2.0343e-07
3.32225e-07
5.01074e-06
2.01421e-07
1.92899e-07
8.18772e-06
1.877e-07
6.06658e-08
1.05215e-05
1.70345e-07
-2.83295e-08
1.07728e-05
1.41248e-07
6.84132e-06
8.87921e-08
2.08202e-08
-4.08961e-06
6.03657e-08
4.24702e-08
-7.14157e-06
1.08603e-07
4.90532e-08
-7.49305e-06
1.40064e-07
5.62421e-08
-6.98097e-06
1.65056e-07
6.05206e-08
-6.17462e-06
1.84264e-07
4.99639e-08
-5.40377e-06
1.97753e-07
2.0495e-08
-4.82282e-06
2.06162e-07
-2.08244e-08
-4.46331e-06
2.0895e-07
-6.30545e-08
-4.26988e-06
2.07168e-07
-9.78461e-08
-4.17752e-06
2.0202e-07
-1.18998e-07
-4.14224e-06
1.94443e-07
-1.23495e-07
-4.13499e-06
1.84988e-07
-1.11653e-07
-4.13873e-06
1.74891e-07
-8.53116e-08
-4.14532e-06
1.65053e-07
-4.77616e-08
-4.15217e-06
1.56656e-07
-2.90237e-09
-4.15856e-06
1.50105e-07
4.55502e-08
-4.1643e-06
1.45554e-07
9.40206e-08
-4.16907e-06
1.43013e-07
1.40055e-07
-4.17286e-06
1.42126e-07
1.81776e-07
-4.17429e-06
1.42359e-07
2.17244e-07
-4.16905e-06
1.42672e-07
2.46118e-07
-4.15163e-06
1.41649e-07
2.7058e-07
-4.11499e-06
1.37887e-07
2.94899e-07
-4.04894e-06
1.30112e-07
3.18961e-07
-3.93948e-06
1.23602e-07
3.45057e-07
-3.76354e-06
1.16431e-07
3.73167e-07
-3.41835e-06
1.11508e-07
4.00651e-07
-2.58805e-06
1.14603e-07
4.15029e-07
-8.56986e-07
1.25428e-07
3.85443e-07
1.75577e-06
1.31429e-07
3.15211e-07
4.91742e-06
1.32901e-07
1.62976e-07
8.18925e-06
1.28282e-07
9.18471e-08
1.04531e-05
1.18252e-07
-4.41013e-10
1.07384e-05
9.94891e-08
6.77746e-06
6.27225e-08
2.44232e-08
-4.16727e-06
4.84957e-08
8.12848e-08
-7.29119e-06
8.87566e-08
1.30145e-07
-7.66216e-06
1.16352e-07
1.53115e-07
-7.1477e-06
1.39552e-07
1.53823e-07
-6.33834e-06
1.5846e-07
1.35165e-07
-5.56232e-06
1.72582e-07
9.73192e-08
-4.97131e-06
1.8194e-07
4.65924e-08
-4.60282e-06
1.86058e-07
-7.38751e-09
-4.40539e-06
1.8534e-07
-5.6632e-08
-4.31348e-06
1.80852e-07
-9.4345e-08
-4.2828e-06
1.73625e-07
-1.16625e-07
-4.28198e-06
1.64261e-07
-1.22457e-07
-4.29232e-06
1.54067e-07
-1.12539e-07
-4.30509e-06
1.44104e-07
-8.93223e-08
-4.31664e-06
1.35119e-07
-5.63223e-08
-4.326e-06
1.27859e-07
-1.69649e-08
-4.33302e-06
1.22355e-07
2.55663e-08
-4.33753e-06
1.18446e-07
6.91069e-08
-4.34031e-06
1.15915e-07
1.1162e-07
-4.33957e-06
1.14188e-07
1.51485e-07
-4.33058e-06
1.12492e-07
1.89111e-07
-4.30881e-06
1.09734e-07
2.2669e-07
-4.26778e-06
1.04788e-07
2.68254e-07
-4.19798e-06
9.65789e-08
3.18754e-07
-4.0857e-06
8.40717e-08
3.74449e-07
-3.90608e-06
7.30754e-08
4.2535e-07
-3.5486e-06
6.13204e-08
4.4015e-07
-2.68106e-06
5.34543e-08
3.92347e-07
-8.93203e-07
5.26453e-08
3.11522e-07
1.75188e-06
5.62118e-08
2.52024e-07
4.89766e-06
5.84732e-08
1.90054e-07
8.17307e-06
6.09595e-08
9.16619e-08
1.04715e-05
5.83713e-08
2.18066e-09
1.07533e-05
5.05664e-08
6.74716e-06
3.1967e-08
2.97128e-08
-4.236e-06
3.32591e-08
7.90059e-08
-7.41004e-06
6.48124e-08
1.18341e-07
-7.79309e-06
8.70579e-08
1.37881e-07
-7.27724e-06
1.05205e-07
1.454e-07
-6.47249e-06
1.21513e-07
1.41161e-07
-5.69949e-06
1.36267e-07
1.1643e-07
-5.09997e-06
1.48575e-07
7.50793e-08
-4.7227e-06
1.56771e-07
2.54736e-08
-4.51957e-06
1.5945e-07
-2.50545e-08
-4.425e-06
1.57616e-07
-7.03207e-08
-4.39417e-06
1.51998e-07
-1.05067e-07
-4.39567e-06
1.4356e-07
-1.26006e-07
-4.4104e-06
1.339e-07
-1.32152e-07
-4.42841e-06
1.24078e-07
-1.24715e-07
-4.44488e-06
1.15143e-07
-1.06405e-07
-4.45777e-06
1.07504e-07
-8.09568e-08
-4.46626e-06
1.0155e-07
-5.10051e-08
-4.47106e-06
9.70102e-08
-1.94781e-08
-4.47232e-06
9.35338e-08
1.00701e-08
-4.46722e-06
9.07374e-08
3.61141e-08
-4.45245e-06
8.80271e-08
5.89175e-08
-4.4244e-06
8.45086e-08
8.0865e-08
-4.37753e-06
7.90865e-08
1.06566e-07
-4.30338e-06
7.0645e-08
1.41604e-07
-4.18858e-06
5.82053e-08
1.8562e-07
-4.00627e-06
4.48059e-08
2.30219e-07
-3.63645e-06
2.81974e-08
2.45448e-07
-2.72446e-06
7.18648e-09
1.95969e-07
-8.62699e-07
-5.5125e-09
9.32064e-08
1.84115e-06
-9.72674e-09
1.32776e-08
4.9669e-06
-8.46364e-09
2.36679e-08
8.15026e-06
-3.1196e-09
-2.19031e-08
1.05011e-05
-9.663e-10
-4.66863e-09
1.07178e-05
7.51798e-10
6.7373e-06
4.70209e-09
1.80895e-08
-4.28822e-06
2.72384e-08
8.21563e-08
-7.53906e-06
5.9579e-08
1.56493e-07
-7.95232e-06
7.99919e-08
2.27147e-07
-7.44316e-06
9.03171e-08
2.55517e-07
-6.60386e-06
9.73859e-08
2.38958e-07
-5.7939e-06
1.05004e-07
1.98798e-07
-5.17902e-06
1.13715e-07
1.47566e-07
-4.79821e-06
1.21745e-07
8.93026e-08
-4.59405e-06
1.27947e-07
2.84063e-08
-4.49891e-06
1.29935e-07
-2.98852e-08
-4.46866e-06
1.27763e-07
-8.06987e-08
-4.47214e-06
1.22071e-07
-1.20897e-07
-4.48992e-06
1.14294e-07
-1.48959e-07
-4.51151e-06
1.0551e-07
-1.65439e-07
-4.53142e-06
9.71394e-08
-1.72058e-07
-4.547e-06
8.9732e-08
-1.71361e-07
-4.55702e-06
8.37137e-08
-1.65863e-07
-4.56215e-06
7.89319e-08
-1.57241e-07
-4.56289e-06
7.49681e-08
-1.47378e-07
-4.55609e-06
7.16548e-08
-1.37937e-07
-4.53803e-06
6.84086e-08
-1.29216e-07
-4.50561e-06
6.4323e-08
-1.19864e-07
-4.45371e-06
5.82606e-08
-1.07216e-07
-4.37415e-06
4.92527e-08
-8.77933e-08
-4.25411e-06
3.657e-08
-5.77514e-08
-4.06798e-06
2.04102e-08
-1.85662e-08
-3.69255e-06
2.92697e-09
1.31893e-08
-2.75359e-06
-2.22613e-08
2.96062e-08
-8.60753e-07
-4.41431e-08
-1.3651e-08
1.9187e-06
-5.90893e-08
-7.28479e-08
5.06944e-06
-6.17552e-08
-9.00466e-08
8.20813e-06
-5.50143e-08
-7.46651e-08
1.05149e-05
-4.54469e-08
-2.8917e-08
1.06925e-05
-3.7318e-08
6.72697e-06
-1.90258e-08
5.34588e-09
-4.32879e-06
2.71016e-08
3.25192e-08
-7.63785e-06
6.43751e-08
6.00521e-08
-8.07375e-06
8.73794e-08
8.14438e-08
-7.56796e-06
9.69356e-08
6.37631e-08
-6.69306e-06
9.98955e-08
9.55004e-09
-5.84693e-06
1.0031e-07
-4.62269e-08
-5.23051e-06
1.00961e-07
-9.73398e-08
-4.85591e-06
1.03115e-07
-1.45532e-07
-4.65638e-06
1.05116e-07
-1.9228e-07
-4.56361e-06
1.06043e-07
-2.35593e-07
-4.53519e-06
1.04306e-07
-2.73071e-07
-4.54017e-06
9.98035e-08
-3.03122e-07
-4.5589e-06
9.31845e-08
-3.25041e-07
-4.58134e-06
8.5723e-08
-3.38761e-07
-4.60192e-06
7.80091e-08
-3.45476e-07
-4.61769e-06
7.10137e-08
-3.46889e-07
-4.62711e-06
6.49595e-08
-3.44369e-07
-4.63147e-06
6.00643e-08
-3.38664e-07
-4.63135e-06
5.57552e-08
-3.31009e-07
-4.623e-06
5.19504e-08
-3.21955e-07
-4.60294e-06
4.82493e-08
-3.11295e-07
-4.56817e-06
4.39488e-08
-2.97978e-07
-4.51354e-06
3.82517e-08
-2.80257e-07
-4.43069e-06
3.03603e-08
-2.56676e-07
-4.30665e-06
2.00272e-08
-2.26505e-07
-4.11571e-06
7.14193e-09
-1.91722e-07
-3.73153e-06
-9.29214e-09
-1.69229e-07
-2.76454e-06
-3.04808e-08
-1.52098e-07
-8.41848e-07
-6.05768e-08
-1.40556e-07
1.96682e-06
-8.31136e-08
-1.33729e-07
5.14072e-06
-9.5808e-08
-1.30598e-07
8.28504e-06
-9.38333e-08
-7.12596e-08
1.05213e-05
-8.39257e-08
-4.50318e-08
1.07184e-05
-7.10867e-08
6.72133e-06
-3.9956e-08
1.68185e-09
-4.36461e-06
2.41218e-08
-1.24731e-08
-7.69292e-06
6.22015e-08
-5.15083e-08
-8.12935e-06
8.75179e-08
-1.02464e-07
-7.62681e-06
1.01585e-07
-1.49055e-07
-6.7638e-06
1.08648e-07
-2.05298e-07
-5.90958e-06
1.10509e-07
-2.57602e-07
-5.2947e-06
1.08941e-07
-3.04262e-07
-4.92205e-06
1.06042e-07
-3.45964e-07
-4.7239e-06
1.02848e-07
-3.83501e-07
-4.63169e-06
9.9283e-08
-4.16508e-07
-4.60326e-06
9.46172e-08
-4.44292e-07
-4.60754e-06
8.85351e-08
-4.6649e-07
-4.62491e-06
8.14278e-08
-4.83108e-07
-4.64577e-06
7.4081e-08
-4.94162e-07
-4.66484e-06
6.68219e-08
-5.00089e-07
-4.67933e-06
6.02642e-08
-5.0154e-07
-4.68761e-06
5.45061e-08
-4.99234e-07
-4.69109e-06
4.96123e-08
-4.92877e-07
-4.6907e-06
4.49943e-08
-4.82489e-07
-4.68257e-06
4.08876e-08
-4.6806e-07
-4.66305e-06
3.70472e-08
-4.49149e-07
-4.62899e-06
3.28906e-08
-4.25299e-07
-4.57507e-06
2.83211e-08
-3.95616e-07
-4.49274e-06
2.27667e-08
-3.59759e-07
-4.3686e-06
1.59344e-08
-3.19211e-07
-4.17601e-06
7.74718e-09
-2.78078e-07
-3.78505e-06
-3.44992e-09
-2.49142e-07
-2.79494e-06
-2.11434e-08
-2.40379e-07
-8.30205e-07
-4.85338e-08
-2.38731e-07
2.01574e-06
-7.74624e-08
-2.35494e-07
5.21602e-06
-1.00419e-07
-2.04837e-07
8.34481e-06
-1.07817e-07
-1.32982e-07
1.05338e-05
-1.03581e-07
-3.68456e-08
1.06899e-05
-8.92285e-08
6.73381e-06
-5.00079e-08
-1.35525e-08
-4.38161e-06
1.91131e-08
-2.47364e-08
-7.74423e-06
5.34131e-08
-4.72197e-08
-8.19224e-06
7.67624e-08
-8.91837e-08
-7.68681e-06
9.18996e-08
-1.62748e-07
-6.80316e-06
1.02217e-07
-2.26765e-07
-5.96334e-06
1.08124e-07
-2.85525e-07
-5.35469e-06
1.10052e-07
-3.36202e-07
-4.98801e-06
1.08886e-07
-3.79112e-07
-4.79387e-06
1.05612e-07
-4.14874e-07
-4.70388e-06
1.00767e-07
-4.43859e-07
-4.67635e-06
9.4788e-08
-4.66058e-07
-4.68062e-06
8.78281e-08
-4.81781e-07
-4.6973e-06
8.05385e-08
-4.91721e-07
-4.71707e-06
7.35209e-08
-4.96344e-07
-4.7349e-06
6.68137e-08
-4.96359e-07
-4.7482e-06
6.08751e-08
-4.922e-07
-4.75553e-06
5.56811e-08
-4.84277e-07
-4.75848e-06
5.12425e-08
-4.72805e-07
-4.75768e-06
4.70436e-08
-4.58335e-07
-4.74911e-06
4.33429e-08
-4.41029e-07
-4.72936e-06
4.00301e-08
-4.20565e-07
-4.6954e-06
3.66711e-08
-3.96656e-07
-4.6419e-06
3.33936e-08
-3.68908e-07
-4.56018e-06
3.00359e-08
-3.37037e-07
-4.43635e-06
2.58006e-08
-3.02722e-07
-4.24268e-06
2.05665e-08
-2.71879e-07
-3.84386e-06
1.23049e-08
-2.67702e-07
-2.81819e-06
-3.34046e-09
-2.85527e-07
-8.11685e-07
-2.85444e-08
-3.17917e-07
2.08209e-06
-6.07263e-08
-4.08955e-07
5.37265e-06
-8.8101e-08
-4.55528e-07
8.48141e-06
-1.07243e-07
-2.73784e-07
1.04449e-05
-1.09709e-07
-8.09344e-08
1.05712e-05
-9.66005e-08
6.70912e-06
-5.70891e-08
-1.93197e-08
-4.3881e-06
1.34785e-08
-5.76247e-08
-7.76228e-06
4.52825e-08
-1.10633e-07
-8.21646e-06
6.65054e-08
-1.69559e-07
-7.71763e-06
7.9168e-08
-2.37053e-07
-6.83403e-06
8.72669e-08
-2.97983e-07
-6.00796e-06
9.41713e-08
-3.48869e-07
-5.41339e-06
9.94782e-08
-3.91632e-07
-5.05623e-06
1.02006e-07
-4.28995e-07
-4.86654e-06
1.01618e-07
-4.62537e-07
-4.77784e-06
9.9192e-08
-4.92266e-07
-4.7499e-06
9.48333e-08
-5.17451e-07
-4.75311e-06
8.9053e-08
-5.37582e-07
-4.76874e-06
8.27722e-08
-5.52795e-07
-4.7875e-06
7.66422e-08
-5.63393e-07
-4.80428e-06
7.07784e-08
-5.70265e-07
-4.8163e-06
6.56402e-08
-5.7441e-07
-4.82207e-06
6.12322e-08
-5.75959e-07
-4.82419e-06
5.7519e-08
-5.76214e-07
-4.82159e-06
5.41134e-08
-5.77523e-07
-4.80952e-06
5.13585e-08
-5.80034e-07
-4.7867e-06
4.91584e-08
-5.83352e-07
-4.75043e-06
4.72602e-08
-5.86893e-07
-4.69547e-06
4.56858e-08
-5.90003e-07
-4.61308e-06
4.44315e-08
-5.91924e-07
-4.48925e-06
4.28699e-08
-5.92147e-07
-4.29685e-06
4.03925e-08
-5.88485e-07
-3.90221e-06
3.48014e-08
-5.77062e-07
-2.87873e-06
2.07929e-08
-5.66357e-07
-8.56126e-07
8.94044e-10
-5.52399e-07
2.06065e-06
-2.62549e-08
-5.23485e-07
5.36685e-06
-5.43739e-08
-4.25181e-07
8.44471e-06
-8.21578e-08
-2.33386e-07
1.03274e-05
-9.39562e-08
-8.59079e-08
1.04868e-05
-9.09432e-08
6.67965e-06
-5.73296e-08
-2.61235e-08
-4.38706e-06
1.20769e-08
-7.49939e-08
-7.76934e-06
4.39812e-08
-1.58088e-07
-8.20755e-06
6.29853e-08
-2.34593e-07
-7.72577e-06
7.14144e-08
-2.98913e-07
-6.8586e-06
7.50236e-08
-3.45568e-07
-6.053e-06
7.95561e-08
-3.74561e-07
-5.48008e-06
8.4912e-08
-3.94102e-07
-5.13577e-06
8.9522e-08
-4.11231e-07
-4.95052e-06
9.21532e-08
-4.29558e-07
-4.86091e-06
9.25679e-08
-4.49354e-07
-4.82985e-06
9.08039e-08
-4.69179e-07
-4.8298e-06
8.74112e-08
-4.87292e-07
-4.84303e-06
8.31673e-08
-5.02598e-07
-4.86039e-06
7.88072e-08
-5.14392e-07
-4.87664e-06
7.46143e-08
-5.22796e-07
-4.88862e-06
7.11088e-08
-5.28534e-07
-4.89447e-06
6.84534e-08
-5.33119e-07
-4.89592e-06
6.64294e-08
-5.37985e-07
-4.89202e-06
6.52006e-08
-5.43727e-07
-4.87894e-06
6.48664e-08
-5.50827e-07
-4.85551e-06
6.53828e-08
-5.59173e-07
-4.81919e-06
6.62809e-08
-5.68509e-07
-4.76487e-06
6.76649e-08
-5.7824e-07
-4.68377e-06
6.92859e-08
-5.87736e-07
-4.56154e-06
7.02909e-08
-5.96958e-07
-4.37134e-06
7.0207e-08
-6.00214e-07
-3.9845e-06
6.72757e-08
-5.76953e-07
-2.98768e-06