/*--------------------------------*- C++ -*----------------------------------*\
| =========                 |                                                 |
| \\      /  F ield         | OpenFOAM: The Open Source CFD Toolbox           |
|  \\    /   O peration     | Version:  2.0.x                                 |
|   \\  /    A nd           | Web:      www.OpenFOAM.org                      |
|    \\/     M anipulation  |                                                 |
\*---------------------------------------------------------------------------*/
FoamFile
{
    version     2.0;
    format      ascii;
    class       volScalarField;
    location    "50";
    object      T;
}
// * * * * * * * * * * * * * * * * * * * * * * * * * * * * * * * * * * * * * //

dimensions      [0 0 0 1 0 0 0];

internalField   nonuniform List<scalar> 
78750
(
288.801
289.796
290.234
290.521
290.703
290.834
290.937
291.043
291.154
291.265
291.395
291.561
291.765
291.989
292.213
292.42
292.596
292.734
292.834
292.902
292.945
292.971
292.985
292.993
292.999
293.004
293.011
293.023
293.045
293.09
293.195
293.511
294.56
297.567
303.722
288.944
290.164
291.055
291.71
292.128
292.381
292.53
292.617
292.672
292.703
292.715
292.719
292.733
292.767
292.814
292.861
292.903
292.936
292.961
292.977
292.988
292.994
292.999
293.003
293.009
293.018
293.034
293.062
293.11
293.189
293.351
293.801
295.135
298.33
304.105
288.62
289.458
290.149
290.749
291.278
291.731
292.105
292.391
292.589
292.723
292.815
292.878
292.92
292.948
292.966
292.979
292.987
292.992
292.996
292.998
292.999
293.001
293.003
293.008
293.016
293.031
293.057
293.103
293.179
293.317
293.629
294.401
296.218
299.503
304.567
288.602
289.443
290.106
290.631
291.065
291.416
291.713
291.98
292.222
292.425
292.588
292.718
292.815
292.883
292.93
292.959
292.977
292.987
292.994
292.997
292.999
293.002
293.005
293.011
293.023
293.046
293.085
293.152
293.268
293.502
294.012
295.119
297.308
300.492
304.9
288.703
289.746
290.553
291.182
291.681
292.033
292.276
292.453
292.592
292.702
292.788
292.855
292.905
292.94
292.964
292.979
292.988
292.994
292.997
292.999
293.001
293.003
293.008
293.016
293.031
293.06
293.11
293.199
293.367
293.717
294.437
295.83
298.198
301.261
305.231
288.761
289.882
290.744
291.423
291.963
292.341
292.586
292.737
292.829
292.887
292.927
292.954
292.972
292.984
292.991
292.995
292.997
292.999
293
293.001
293.003
293.006
293.011
293.023
293.043
293.08
293.145
293.262
293.498
293.965
294.853
296.409
298.799
301.755
305.474
288.766
289.893
290.76
291.441
291.983
292.362
292.609
292.763
292.854
292.91
292.946
292.969
292.982
292.99
292.995
292.997
292.999
293
293.001
293.002
293.004
293.008
293.015
293.029
293.054
293.098
293.173
293.316
293.599
294.135
295.104
296.726
299.102
301.986
305.584
288.781
289.934
290.819
291.508
292.045
292.411
292.644
292.787
292.87
292.922
292.955
292.974
292.986
292.993
292.996
292.998
292.999
293
293.001
293.002
293.005
293.01
293.019
293.036
293.066
293.118
293.209
293.383
293.717
294.321
295.358
297.015
299.335
302.138
305.655
288.791
289.947
290.837
291.536
292.079
292.448
292.677
292.809
292.886
292.932
292.961
292.979
292.989
292.994
292.997
292.999
293
293
293.001
293.003
293.006
293.011
293.022
293.041
293.074
293.129
293.226
293.41
293.754
294.361
295.392
297.038
299.347
302.145
305.65
288.79
289.947
290.838
291.531
292.075
292.448
292.679
292.813
292.891
292.938
292.966
292.982
292.991
292.995
292.998
292.999
293
293.001
293.002
293.003
293.007
293.013
293.025
293.047
293.087
293.152
293.265
293.477
293.852
294.483
295.518
297.149
299.445
302.225
305.689
288.789
289.944
290.834
291.53
292.073
292.446
292.678
292.813
292.891
292.938
292.966
292.982
292.991
292.996
292.998
292.999
293
293.001
293.002
293.004
293.007
293.014
293.028
293.054
293.099
293.177
293.315
293.579
294.042
294.775
295.898
297.564
299.782
302.448
305.798
288.787
289.943
290.832
291.529
292.072
292.445
292.677
292.813
292.891
292.938
292.966
292.982
292.991
292.996
292.998
292.999
293
293.001
293.002
293.004
293.007
293.015
293.029
293.055
293.103
293.187
293.341
293.642
294.165
294.962
296.129
297.798
299.968
302.562
305.835
288.788
289.945
290.835
291.527
292.07
292.443
292.675
292.81
292.889
292.937
292.966
292.982
292.991
292.996
292.998
292.999
293
293.001
293.002
293.004
293.007
293.015
293.03
293.058
293.109
293.199
293.365
293.688
294.245
295.075
296.25
297.885
300.011
302.583
305.85
288.786
289.941
290.824
291.514
292.055
292.429
292.665
292.803
292.884
292.934
292.965
292.982
292.991
292.996
292.998
292.999
293
293.001
293.002
293.004
293.008
293.015
293.03
293.057
293.108
293.195
293.358
293.685
294.273
295.161
296.405
298.1
300.222
302.733
305.888
288.781
289.925
290.796
291.482
292.026
292.406
292.648
292.791
292.876
292.93
292.962
292.98
292.99
292.995
292.998
292.999
293
293.001
293.002
293.004
293.008
293.015
293.03
293.057
293.107
293.195
293.357
293.673
294.235
295.094
296.324
298.016
300.134
302.672
305.872
288.78
289.919
290.794
291.474
292.021
292.4
292.642
292.786
292.871
292.925
292.959
292.978
292.989
292.995
292.998
292.999
293
293.001
293.002
293.004
293.008
293.016
293.032
293.06
293.11
293.196
293.357
293.675
294.236
295.094
296.308
298.013
300.137
302.657
305.862
288.782
289.925
290.79
291.47
292.016
292.396
292.639
292.784
292.871
292.925
292.959
292.978
292.989
292.995
292.998
292.999
293
293.001
293.002
293.004
293.008
293.016
293.031
293.06
293.112
293.206
293.379
293.717
294.299
295.141
296.336
298.016
300.125
302.669
305.865
288.783
289.923
290.788
291.465
292.004
292.386
292.632
292.779
292.867
292.923
292.958
292.978
292.989
292.995
292.998
292.999
293
293.001
293.002
293.004
293.008
293.016
293.031
293.06
293.114
293.209
293.39
293.755
294.39
295.307
296.518
298.133
300.225
302.727
305.903
288.779
289.914
290.769
291.438
291.983
292.371
292.622
292.771
292.861
292.919
292.955
292.976
292.988
292.994
292.997
292.999
293
293.001
293.002
293.004
293.008
293.016
293.031
293.061
293.114
293.209
293.391
293.758
294.395
295.326
296.586
298.289
300.309
302.762
305.91
288.79
289.954
290.827
291.501
292.036
292.409
292.645
292.784
292.869
292.923
292.957
292.977
292.988
292.994
292.997
292.999
293
293.001
293.002
293.004
293.008
293.017
293.033
293.064
293.119
293.215
293.397
293.764
294.403
295.332
296.596
298.28
300.329
302.805
305.915
288.794
289.964
290.836
291.507
292.041
292.412
292.647
292.786
292.87
292.923
292.957
292.977
292.988
292.994
292.997
292.999
293
293.001
293.002
293.004
293.008
293.017
293.033
293.063
293.118
293.215
293.397
293.763
294.405
295.341
296.611
298.29
300.339
302.796
305.913
288.809
290.004
290.886
291.554
292.079
292.438
292.662
292.794
292.874
292.926
292.958
292.978
292.989
292.995
292.998
292.999
293
293.001
293.002
293.004
293.009
293.018
293.035
293.067
293.124
293.224
293.415
293.8
294.468
295.431
296.709
298.395
300.425
302.808
305.913
288.815
290.015
290.895
291.564
292.087
292.446
292.671
292.8
292.879
292.929
292.961
292.979
292.989
292.995
292.998
292.999
293
293.001
293.002
293.004
293.008
293.017
293.034
293.064
293.119
293.215
293.395
293.767
294.415
295.357
296.623
298.295
300.321
302.754
305.899
288.816
290.014
290.896
291.564
292.088
292.448
292.67
292.8
292.879
292.929
292.961
292.979
292.99
292.995
292.998
292.999
293
293.001
293.002
293.004
293.008
293.017
293.034
293.065
293.12
293.216
293.396
293.761
294.412
295.355
296.609
298.277
300.323
302.742
305.899
288.817
290.017
290.898
291.568
292.087
292.447
292.67
292.8
292.879
292.929
292.961
292.979
292.989
292.995
292.998
292.999
293
293.001
293.002
293.004
293.009
293.018
293.035
293.068
293.125
293.225
293.411
293.791
294.466
295.429
296.688
298.349
300.366
302.78
305.899
288.818
290.014
290.892
291.559
292.085
292.443
292.667
292.799
292.879
292.929
292.96
292.979
292.989
292.995
292.998
292.999
293
293.001
293.002
293.004
293.008
293.017
293.033
293.063
293.116
293.207
293.373
293.709
294.331
295.283
296.542
298.225
300.276
302.714
305.869
288.821
290.02
290.895
291.557
292.082
292.44
292.665
292.797
292.878
292.929
292.96
292.979
292.989
292.995
292.998
292.999
293
293.001
293.002
293.004
293.008
293.017
293.033
293.063
293.116
293.208
293.373
293.707
294.322
295.258
296.545
298.23
300.287
302.729
305.869
288.822
290.02
290.897
291.56
292.08
292.439
292.664
292.797
292.877
292.929
292.96
292.979
292.989
292.995
292.998
292.999
293
293.001
293.002
293.004
293.009
293.019
293.037
293.07
293.13
293.231
293.414
293.782
294.452
295.422
296.677
298.351
300.397
302.806
305.904
288.823
290.02
290.896
291.559
292.078
292.437
292.663
292.797
292.877
292.928
292.96
292.979
292.989
292.995
292.998
292.999
293
293.001
293.002
293.003
293.007
293.014
293.028
293.056
293.106
293.195
293.363
293.713
294.39
295.405
296.669
298.309
300.334
302.748
305.888
288.82
290.012
290.88
291.534
292.051
292.415
292.649
292.788
292.872
292.925
292.958
292.977
292.988
292.994
292.998
292.999
293
293.001
293.002
293.003
293.007
293.014
293.027
293.052
293.096
293.173
293.309
293.586
294.175
295.171
296.486
298.157
300.222
302.685
305.857
288.82
290.015
290.882
291.536
292.058
292.421
292.653
292.791
292.874
292.926
292.958
292.978
292.989
292.995
292.998
292.999
293
293.001
293.002
293.003
293.007
293.013
293.027
293.051
293.096
293.172
293.305
293.568
294.104
294.999
296.28
298.003
300.155
302.662
305.834
288.818
290.016
290.884
291.537
292.052
292.417
292.65
292.79
292.873
292.925
292.958
292.978
292.989
292.995
292.998
292.999
293
293.001
293.001
293.003
293.007
293.013
293.027
293.052
293.097
293.177
293.315
293.585
294.126
295.009
296.282
298.011
300.17
302.677
305.83
288.816
290.013
290.877
291.528
292.048
292.415
292.65
292.79
292.873
292.925
292.958
292.978
292.989
292.994
292.998
292.999
293
293.001
293.002
293.003
293.007
293.015
293.029
293.057
293.107
293.196
293.355
293.675
294.301
295.278
296.546
298.214
300.345
302.785
305.87
288.807
289.986
290.84
291.489
292.013
292.392
292.637
292.783
292.87
292.924
292.957
292.977
292.988
292.994
292.998
292.999
293
293.001
293.002
293.003
293.007
293.013
293.026
293.05
293.092
293.167
293.298
293.566
294.159
295.19
296.58
298.288
300.337
302.763
305.87
288.794
289.95
290.79
291.433
291.958
292.348
292.607
292.765
292.858
292.916
292.953
292.975
292.987
292.994
292.997
292.999
293
293.001
293.002
293.003
293.007
293.013
293.026
293.049
293.092
293.167
293.295
293.548
294.069
294.96
296.27
298.017
300.188
302.681
305.827
288.805
289.987
290.825
291.444
291.951
292.329
292.586
292.748
292.847
292.909
292.949
292.972
292.986
292.993
292.997
292.999
293
293.001
293.002
293.004
293.008
293.016
293.031
293.059
293.108
293.19
293.331
293.602
294.132
294.993
296.259
298.007
300.19
302.684
305.816
288.854
290.131
291.021
291.648
292.119
292.44
292.646
292.775
292.856
292.91
292.948
292.971
292.985
292.993
292.997
292.999
293
293.001
293.002
293.005
293.009
293.018
293.036
293.068
293.124
293.219
293.383
293.703
294.317
295.263
296.495
298.126
300.24
302.721
305.857
288.888
290.192
291.109
291.761
292.244
292.555
292.735
292.837
292.899
292.939
292.965
292.981
292.99
292.995
292.998
292.999
293
293.001
293.002
293.005
293.009
293.019
293.036
293.068
293.124
293.219
293.384
293.704
294.336
295.33
296.641
298.308
300.386
302.812
305.892
288.887
290.192
291.106
291.761
292.239
292.554
292.744
292.851
292.913
292.951
292.973
292.986
292.993
292.997
292.999
293
293
293.001
293.002
293.005
293.01
293.021
293.04
293.074
293.133
293.23
293.392
293.718
294.365
295.371
296.675
298.332
300.404
302.822
305.898
288.868
290.152
291.069
291.73
292.223
292.548
292.742
292.851
292.913
292.951
292.973
292.986
292.993
292.997
292.999
293
293
293.001
293.002
293.004
293.008
293.017
293.035
293.067
293.125
293.225
293.4
293.737
294.415
295.487
296.865
298.557
300.599
302.949
305.917
288.842
290.086
290.983
291.643
292.151
292.497
292.71
292.833
292.903
292.946
292.971
292.985
292.993
292.997
292.999
293
293
293.001
293.002
293.004
293.008
293.016
293.031
293.059
293.109
293.194
293.341
293.623
294.209
295.215
296.632
298.378
300.499
302.894
305.904
288.84
290.08
290.976
291.635
292.141
292.486
292.699
292.823
292.895
292.94
292.967
292.983
292.992
292.996
292.998
293
293
293.001
293.002
293.004
293.008
293.015
293.03
293.058
293.107
293.192
293.337
293.617
294.196
295.184
296.579
298.36
300.496
302.893
305.889
288.817
290.016
290.893
291.553
292.074
292.439
292.67
292.806
292.885
292.934
292.964
292.981
292.99
292.995
292.998
292.999
293
293.001
293.002
293.003
293.007
293.014
293.028
293.054
293.102
293.186
293.331
293.617
294.207
295.212
296.61
298.379
300.538
302.93
305.894
288.787
289.932
290.773
291.419
291.95
292.342
292.602
292.761
292.856
292.915
292.952
292.974
292.986
292.993
292.997
292.999
293
293.001
293.001
293.003
293.007
293.014
293.027
293.052
293.095
293.17
293.295
293.536
294.067
295.057
296.497
298.283
300.448
302.861
305.879
288.783
289.917
290.743
291.375
291.902
292.3
292.571
292.738
292.838
292.902
292.943
292.969
292.983
292.991
292.996
292.998
293
293
293.001
293.003
293.006
293.013
293.027
293.051
293.094
293.167
293.287
293.514
293.985
294.858
296.239
298.045
300.281
302.757
305.834
288.787
289.939
290.766
291.391
291.912
292.307
292.575
292.74
292.839
292.902
292.943
292.969
292.984
292.992
292.996
292.998
293
293
293.001
293.003
293.006
293.012
293.025
293.049
293.092
293.165
293.287
293.513
293.98
294.822
296.122
297.953
300.255
302.744
305.793
288.798
289.967
290.796
291.414
291.925
292.315
292.579
292.741
292.839
292.901
292.943
292.968
292.984
292.992
292.996
292.998
293
293
293.001
293.003
293.005
293.011
293.023
293.045
293.087
293.166
293.305
293.57
294.14
295.09
296.35
298.028
300.267
302.753
305.825
288.827
290.042
290.907
291.54
292.047
292.411
292.645
292.784
292.865
292.917
292.951
292.973
292.986
292.993
292.997
292.999
293
293
293.001
293.003
293.006
293.011
293.023
293.046
293.086
293.16
293.294
293.589
294.26
295.4
296.906
298.676
300.739
303.064
305.967
288.828
290.041
290.906
291.547
292.053
292.422
292.659
292.8
292.88
292.928
292.959
292.977
292.988
292.994
292.997
292.999
293
293.001
293.001
293.003
293.006
293.012
293.024
293.046
293.088
293.161
293.289
293.54
294.065
295.066
296.622
298.51
300.687
303.04
305.951
288.827
290.043
290.908
291.543
292.056
292.421
292.658
292.8
292.88
292.928
292.959
292.977
292.988
292.994
292.997
292.999
293
293.001
293.002
293.004
293.007
293.015
293.029
293.055
293.099
293.173
293.298
293.539
294.048
294.917
296.233
298.03
300.267
302.736
305.811
288.826
290.036
290.894
291.525
292.032
292.399
292.639
292.788
292.875
292.926
292.958
292.977
292.988
292.994
292.997
292.999
293
293.001
293.002
293.004
293.008
293.017
293.033
293.064
293.117
293.206
293.353
293.631
294.182
295.065
296.301
298.026
300.245
302.698
305.778
288.851
290.111
290.992
291.626
292.119
292.466
292.684
292.811
292.884
292.929
292.958
292.977
292.988
292.994
292.997
292.999
293
293.001
293.002
293.003
293.007
293.014
293.027
293.053
293.102
293.189
293.342
293.645
294.259
295.253
296.569
298.165
300.25
302.716
305.804
288.858
290.114
290.996
291.638
292.142
292.494
292.71
292.834
292.904
292.944
292.969
292.983
292.992
292.996
292.998
293
293
293.001
293.002
293.003
293.007
293.014
293.027
293.052
293.097
293.179
293.318
293.586
294.156
295.197
296.682
298.469
300.599
302.933
305.882
288.852
290.106
290.985
291.628
292.135
292.488
292.708
292.834
292.903
292.944
292.969
292.983
292.992
292.996
292.998
293
293
293.001
293.002
293.003
293.007
293.014
293.027
293.052
293.098
293.178
293.316
293.585
294.148
295.134
296.565
298.371
300.559
302.928
305.879
288.825
290.036
290.893
291.534
292.056
292.434
292.677
292.818
292.897
292.941
292.968
292.983
292.992
292.996
292.998
293
293
293.001
293.002
293.004
293.007
293.015
293.029
293.055
293.101
293.181
293.32
293.591
294.172
295.173
296.581
298.342
300.514
302.894
305.866
288.818
290.006
290.838
291.46
291.982
292.38
292.644
292.798
292.882
292.931
292.962
292.98
292.99
292.995
292.998
292.999
293
293.001
293.002
293.004
293.009
293.017
293.033
293.062
293.113
293.198
293.34
293.609
294.165
295.1
296.488
298.237
300.413
302.802
305.813
288.835
290.065
290.91
291.532
292.047
292.426
292.663
292.798
292.878
292.927
292.959
292.978
292.989
292.995
292.998
292.999
293
293.001
293.002
293.004
293.009
293.018
293.036
293.067
293.121
293.21
293.357
293.626
294.155
295.082
296.434
298.193
300.394
302.784
305.773
288.878
290.172
291.048
291.672
292.162
292.503
292.711
292.828
292.894
292.936
292.963
292.98
292.989
292.995
292.998
292.999
293
293.001
293.002
293.004
293.009
293.018
293.036
293.068
293.124
293.217
293.368
293.644
294.195
295.136
296.473
298.2
300.393
302.769
305.764
288.881
290.178
291.057
291.68
292.168
292.507
292.714
292.831
292.896
292.937
292.964
292.98
292.989
292.995
292.998
292.999
293
293
293.001
293.002
293.005
293.01
293.021
293.041
293.08
293.15
293.274
293.517
294.05
295.073
296.549
298.325
300.472
302.833
305.82
288.885
290.198
291.094
291.726
292.213
292.544
292.737
292.842
292.902
292.94
292.965
292.981
292.99
292.995
292.998
292.999
293
293
293.001
293.002
293.005
293.01
293.021
293.042
293.08
293.15
293.273
293.519
294.044
295.009
296.57
298.515
300.772
303.06
305.866
288.91
290.24
291.146
291.79
292.267
292.577
292.761
292.863
292.919
292.952
292.973
292.986
292.993
292.997
292.999
293
293
293.001
293.002
293.003
293.006
293.012
293.024
293.046
293.086
293.156
293.279
293.522
294.04
294.976
296.39
298.307
300.605
302.944
305.811
288.914
290.244
291.151
291.792
292.266
292.575
292.759
292.862
292.92
292.954
292.975
292.987
292.994
292.997
292.999
293
293
293.001
293.003
293.005
293.011
293.021
293.041
293.076
293.136
293.235
293.399
293.698
294.277
295.212
296.551
298.31
300.562
302.907
305.803
288.903
290.226
291.132
291.776
292.254
292.568
292.755
292.861
292.92
292.954
292.975
292.987
292.994
292.997
292.999
293
293.001
293.001
293.003
293.006
293.012
293.024
293.047
293.086
293.154
293.266
293.447
293.779
294.421
295.439
296.798
298.446
300.589
302.913
305.82
288.883
290.181
291.073
291.713
292.204
292.54
292.742
292.855
292.917
292.953
292.975
292.987
292.994
292.997
292.999
293
293
293.001
293.001
293.003
293.005
293.011
293.023
293.045
293.087
293.163
293.296
293.549
294.085
295.091
296.601
298.462
300.65
302.941
305.808
288.866
290.136
291.015
291.654
292.157
292.507
292.719
292.838
292.906
292.946
292.971
292.985
292.993
292.997
292.999
293
293
293
293.001
293.002
293.004
293.008
293.016
293.032
293.061
293.114
293.21
293.401
293.842
294.779
296.308
298.284
300.609
302.882
305.749
288.858
290.11
290.979
291.617
292.126
292.483
292.699
292.82
292.891
292.936
292.965
292.981
292.991
292.996
292.998
292.999
293
293
293.001
293.002
293.004
293.008
293.016
293.032
293.06
293.112
293.205
293.388
293.809
294.7
296.188
298.209
300.63
302.879
305.643
288.867
290.142
291.026
291.665
292.159
292.493
292.696
292.813
292.884
292.931
292.961
292.979
292.989
292.995
292.998
292.999
293
293
293.001
293.002
293.004
293.008
293.016
293.032
293.06
293.113
293.205
293.379
293.743
294.462
295.81
297.828
300.347
302.652
305.513
288.877
290.156
291.045
291.69
292.186
292.522
292.723
292.837
292.901
292.941
292.967
292.982
292.991
292.995
292.998
292.999
293
293.001
293.001
293.003
293.006
293.011
293.021
293.04
293.073
293.129
293.22
293.386
293.739
294.432
295.6
297.442
299.985
302.394
305.369
288.874
290.149
291.036
291.68
292.18
292.519
292.722
292.837
292.903
292.943
292.968
292.983
292.991
292.996
292.998
292.999
293
293.001
293.002
293.004
293.008
293.015
293.029
293.056
293.102
293.181
293.31
293.543
293.995
294.751
295.838
297.457
299.931
302.385
305.417
288.845
290.068
290.922
291.557
292.072
292.443
292.678
292.814
292.892
292.938
292.966
292.982
292.991
292.996
292.998
292.999
293
293.001
293.001
293.003
293.006
293.013
293.027
293.052
293.097
293.176
293.31
293.562
294.083
295.003
296.343
298.019
300.146
302.544
305.643
288.815
289.991
290.815
291.422
291.93
292.326
292.599
292.765
292.861
292.919
292.954
292.976
292.988
292.994
292.997
292.999
293
293
293.001
293.003
293.006
293.011
293.023
293.043
293.081
293.147
293.258
293.469
293.931
294.865
296.399
298.366
300.643
302.892
305.711
288.814
289.992
290.818
291.421
291.92
292.314
292.586
292.754
292.853
292.913
292.95
292.973
292.986
292.993
292.997
292.999
293
293
293.001
293.003
293.006
293.011
293.023
293.044
293.081
293.146
293.258
293.465
293.883
294.653
295.92
297.837
300.334
302.654
305.526
288.836
290.06
290.896
291.501
292
292.374
292.626
292.775
292.861
292.914
292.949
292.972
292.985
292.993
292.997
292.999
293
293.001
293.001
293.003
293.007
293.014
293.027
293.053
293.101
293.184
293.324
293.585
294.089
294.884
296.026
297.766
300.19
302.621
305.576
288.853
290.102
290.948
291.543
292.017
292.38
292.627
292.78
292.868
292.92
292.953
292.974
292.986
292.993
292.997
292.999
293
293.001
293.002
293.005
293.009
293.019
293.039
293.076
293.142
293.257
293.46
293.844
294.515
295.524
296.839
298.412
300.491
302.836
305.819
288.86
290.121
290.972
291.567
292.036
292.387
292.629
292.785
292.871
292.921
292.954
292.974
292.986
292.993
292.997
292.999
293
293.001
293.003
293.006
293.012
293.025
293.049
293.092
293.168
293.296
293.519
293.915
294.61
295.69
297.159
298.912
300.98
303.144
305.869
288.885
290.199
291.085
291.694
292.156
292.479
292.686
292.812
292.882
292.926
292.955
292.974
292.986
292.993
292.997
292.999
293
293.002
293.004
293.008
293.016
293.032
293.062
293.116
293.204
293.344
293.565
293.937
294.601
295.641
297.021
298.788
300.927
303.113
305.843
288.923
290.267
291.165
291.803
292.29
292.608
292.786
292.873
292.92
292.951
292.971
292.984
292.992
292.996
292.998
293
293
293.001
293.003
293.007
293.016
293.033
293.064
293.12
293.215
293.365
293.598
293.995
294.735
295.934
297.449
299.061
301.004
303.158
305.92
288.918
290.25
291.134
291.763
292.253
292.59
292.78
292.878
292.93
292.96
292.978
292.988
292.994
292.997
292.999
293
293
293
293.001
293.002
293.004
293.01
293.022
293.049
293.1
293.192
293.353
293.672
294.392
295.75
297.653
299.635
301.65
303.598
306.024
288.848
290.076
290.91
291.514
292.017
292.409
292.673
292.817
292.895
292.94
292.967
292.982
292.991
292.996
292.998
292.999
293
293
293.001
293.002
293.004
293.008
293.016
293.032
293.06
293.111
293.203
293.377
293.75
294.635
296.409
298.872
301.41
303.504
305.955
288.812
289.979
290.778
291.345
291.818
292.214
292.514
292.709
292.824
292.893
292.938
292.966
292.982
292.991
292.996
292.998
293
293
293.001
293.002
293.004
293.008
293.016
293.032
293.06
293.111
293.199
293.366
293.699
294.355
295.572
297.612
300.24
302.794
305.76
288.828
290.047
290.875
291.448
291.907
292.272
292.54
292.72
292.825
292.889
292.932
292.961
292.979
292.989
292.995
292.998
292.999
293
293.001
293.003
293.006
293.012
293.022
293.042
293.075
293.131
293.223
293.387
293.702
294.343
295.491
297.303
299.81
302.446
305.639
288.876
290.181
291.056
291.667
292.152
292.497
292.708
292.822
292.884
292.924
292.952
292.972
292.985
292.992
292.996
292.998
293
293.001
293.002
293.004
293.008
293.016
293.03
293.057
293.103
293.179
293.302
293.5
293.854
294.513
295.644
297.392
299.808
302.401
305.571
288.885
290.202
291.085
291.718
292.212
292.553
292.754
292.863
292.919
292.952
292.973
292.985
292.992
292.996
292.998
292.999
293
293.001
293.001
293.003
293.006
293.013
293.027
293.052
293.099
293.178
293.304
293.511
293.894
294.59
295.733
297.431
299.766
302.392
305.619
288.893
290.212
291.095
291.724
292.219
292.554
292.755
292.863
292.92
292.952
292.973
292.985
292.992
292.996
292.998
292.999
293
293.001
293.001
293.003
293.006
293.012
293.025
293.05
293.096
293.174
293.305
293.54
293.972
294.749
296.02
297.83
300.208
302.581
305.54
288.898
290.21
291.09
291.718
292.212
292.553
292.754
292.862
292.919
292.952
292.973
292.985
292.992
292.996
292.998
292.999
293
293.001
293.001
293.003
293.006
293.012
293.025
293.051
293.097
293.179
293.319
293.568
294.03
294.873
296.248
298.165
300.591
302.853
305.617
288.895
290.207
291.085
291.713
292.21
292.547
292.748
292.857
292.915
292.95
292.972
292.985
292.992
292.996
292.998
292.999
293
293.001
293.001
293.003
293.006
293.014
293.028
293.056
293.106
293.192
293.336
293.594
294.078
294.965
296.402
298.381
300.837
303.057
305.713
288.887
290.189
291.069
291.693
292.181
292.523
292.731
292.846
292.909
292.946
292.969
292.983
292.991
292.996
292.998
292.999
293
293.001
293.002
293.003
293.007
293.014
293.029
293.057
293.108
293.196
293.343
293.607
294.114
295.029
296.489
298.461
300.868
303.062
305.712
288.883
290.183
291.065
291.691
292.178
292.52
292.731
292.848
292.911
292.948
292.971
292.984
292.992
292.996
292.998
292.999
293
293.001
293.001
293.003
293.007
293.015
293.031
293.061
293.115
293.208
293.361
293.635
294.162
295.105
296.574
298.528
300.894
303.069
305.724
288.877
290.172
291.052
291.681
292.176
292.52
292.73
292.847
292.911
292.947
292.97
292.984
292.992
292.996
292.998
292.999
293
293.001
293.001
293.002
293.005
293.011
293.022
293.043
293.081
293.147
293.26
293.464
293.86
294.663
296.11
298.2
300.7
302.975
305.709
288.871
290.153
291.025
291.649
292.147
292.504
292.722
292.843
292.909
292.947
292.97
292.984
292.992
292.996
292.998
292.999
293
293
293.001
293.002
293.004
293.009
293.019
293.038
293.074
293.137
293.245
293.438
293.824
294.578
295.88
297.844
300.372
302.792
305.675
288.864
290.133
290.997
291.625
292.13
292.488
292.713
292.84
292.907
292.946
292.97
292.984
292.992
292.996
292.998
292.999
293
293
293.001
293.002
293.004
293.009
293.019
293.038
293.074
293.136
293.245
293.439
293.821
294.559
295.849
297.778
300.261
302.7
305.639
288.858
290.112
290.964
291.581
292.085
292.459
292.693
292.825
292.897
292.939
292.966
292.982
292.991
292.996
292.998
292.999
293
293.001
293.001
293.002
293.005
293.01
293.021
293.041
293.078
293.142
293.251
293.442
293.821
294.559
295.827
297.719
300.184
302.647
305.626
288.87
290.147
291.015
291.629
292.116
292.461
292.686
292.819
292.894
292.937
292.964
292.98
292.99
292.995
292.998
292.999
293
293.001
293.001
293.003
293.006
293.012
293.023
293.045
293.084
293.152
293.262
293.451
293.816
294.54
295.802
297.679
300.16
302.63
305.609
288.871
290.145
291.021
291.643
292.134
292.487
292.709
292.833
292.899
292.938
292.963
292.979
292.989
292.994
292.997
292.999
293
293
293.001
293.003
293.005
293.011
293.023
293.045
293.085
293.154
293.267
293.46
293.831
294.563
295.807
297.669
300.106
302.611
305.659
288.867
290.143
291.014
291.636
292.13
292.484
292.708
292.835
292.904
292.943
292.967
292.982
292.99
292.995
292.998
292.999
293
293
293.001
293.002
293.003
293.007
293.014
293.028
293.057
293.109
293.202
293.371
293.723
294.47
295.801
297.715
300.149
302.631
305.626
288.866
290.143
291.014
291.638
292.129
292.486
292.707
292.834
292.904
292.943
292.967
292.982
292.99
292.995
292.998
292.999
293
293
293.001
293.002
293.003
293.007
293.014
293.028
293.054
293.103
293.189
293.345
293.677
294.435
295.881
297.945
300.492
302.818
305.632
288.862
290.131
291
291.625
292.125
292.482
292.705
292.834
292.904
292.943
292.967
292.982
292.99
292.995
292.998
292.999
293
293
293.001
293.002
293.003
293.007
293.014
293.028
293.054
293.102
293.187
293.345
293.672
294.34
295.539
297.554
300.162
302.639
305.608
288.859
290.116
290.977
291.597
292.095
292.459
292.691
292.825
292.897
292.939
292.965
292.981
292.99
292.995
292.998
292.999
293
293
293.001
293.002
293.004
293.008
293.017
293.033
293.064
293.118
293.209
293.372
293.7
294.328
295.417
297.191
299.783
302.419
305.561
288.865
290.137
290.99
291.593
292.078
292.439
292.673
292.81
292.886
292.931
292.96
292.978
292.988
292.994
292.997
292.999
293
293
293.001
293.003
293.006
293.013
293.027
293.055
293.105
293.194
293.343
293.612
294.131
294.978
296.092
297.57
299.846
302.44
305.576
288.9
290.232
291.121
291.735
292.201
292.52
292.717
292.83
292.894
292.934
292.96
292.977
292.988
292.994
292.997
292.999
293
293.001
293.001
293.003
293.007
293.014
293.028
293.056
293.108
293.201
293.359
293.653
294.256
295.336
296.868
298.674
300.754
302.933
305.771
288.91
290.246
291.143
291.765
292.233
292.551
292.746
292.857
292.917
292.952
292.973
292.985
292.993
292.996
292.998
293
293
293.001
293.001
293.002
293.005
293.01
293.021
293.041
293.078
293.142
293.252
293.455
293.905
294.896
296.553
298.658
301.016
303.142
305.756
288.906
290.242
291.14
291.762
292.233
292.552
292.746
292.857
292.917
292.952
292.973
292.986
292.993
292.997
292.999
293
293
293.001
293.001
293.002
293.005
293.01
293.021
293.041
293.077
293.142
293.249
293.441
293.829
294.608
295.982
298.009
300.534
302.847
305.653
288.906
290.241
291.138
291.76
292.231
292.55
292.744
292.855
292.916
292.952
292.973
292.986
292.993
292.997
292.999
293
293
293.001
293.001
293.003
293.005
293.011
293.022
293.042
293.079
293.143
293.248
293.44
293.823
294.565
295.808
297.667
300.169
302.628
305.604
288.904
290.234
291.125
291.744
292.216
292.54
292.739
292.852
292.914
292.95
292.972
292.985
292.992
292.996
292.998
293
293
293.001
293.002
293.003
293.006
293.013
293.025
293.048
293.09
293.16
293.276
293.475
293.871
294.644
295.912
297.708
300.161
302.627
305.619
288.892
290.203
291.088
291.71
292.188
292.52
292.726
292.843
292.907
292.946
292.969
292.983
292.992
292.996
292.998
292.999
293
293.001
293.002
293.004
293.007
293.015
293.029
293.055
293.101
293.178
293.304
293.523
293.961
294.793
296.151
298.05
300.44
302.771
305.633
288.881
290.176
291.056
291.678
292.16
292.499
292.711
292.833
292.901
292.941
292.967
292.982
292.991
292.995
292.998
292.999
293
293.001
293.002
293.005
293.011
293.022
293.042
293.078
293.139
293.236
293.385
293.629
294.085
294.891
296.182
298.032
300.446
302.764
305.582
288.852
290.098
290.962
291.587
292.083
292.443
292.677
292.814
292.891
292.936
292.963
292.98
292.99
292.995
292.998
292.999
293
293.001
293.003
293.006
293.012
293.024
293.046
293.086
293.153
293.26
293.426
293.697
294.214
295.149
296.45
298.114
300.44
302.771
305.694
288.821
290.013
290.843
291.445
291.941
292.325
292.592
292.761
292.858
292.915
292.951