/*--------------------------------*- C++ -*----------------------------------*\
| =========                 |                                                 |
| \\      /  F ield         | OpenFOAM: The Open Source CFD Toolbox           |
|  \\    /   O peration     | Version:  2.0.x                                 |
|   \\  /    A nd           | Web:      www.OpenFOAM.org                      |
|    \\/     M anipulation  |                                                 |
\*---------------------------------------------------------------------------*/
FoamFile
{
    version     2.0;
    format      ascii;
    class       volVectorField;
    location    "50";
    object      U;
}
// * * * * * * * * * * * * * * * * * * * * * * * * * * * * * * * * * * * * * //

dimensions      [0 1 -1 0 0 0 0];

internalField   nonuniform List<vector> 
78750
(
(-0.0318771 -0.0942316 -0.0481609)
(-0.00686182 -0.0547685 -0.0298503)
(-0.00863373 -0.0483921 -0.0301759)
(0.00187202 -0.0367778 -0.0292875)
(0.00337008 -0.03031 -0.0294164)
(0.00792756 -0.0260888 -0.0301991)
(0.0120252 -0.0223394 -0.0304691)
(0.0135455 -0.0194858 -0.0309515)
(0.016065 -0.016369 -0.0309233)
(0.0189772 -0.0128777 -0.0307484)
(0.021453 -0.00852111 -0.030004)
(0.023903 -0.00291015 -0.0278394)
(0.0246555 0.00370458 -0.0240416)
(0.0249202 0.00978607 -0.0197761)
(0.0242589 0.0139912 -0.016341)
(0.0235411 0.0165835 -0.0135169)
(0.0225121 0.017817 -0.0111425)
(0.0216367 0.0179223 -0.00889409)
(0.0207786 0.0169936 -0.0067133)
(0.0198558 0.0153513 -0.00481738)
(0.0189333 0.0134402 -0.00329427)
(0.0180788 0.0114514 -0.00215296)
(0.0173152 0.00956094 -0.0013635)
(0.0167725 0.00775459 -0.00083825)
(0.0163188 0.00599468 -0.000651429)
(0.0160582 0.00459458 -0.000636667)
(0.0158354 0.00362551 -0.000660881)
(0.0156204 0.00305932 -0.00069192)
(0.0153437 0.00288331 -0.000692925)
(0.0151348 0.00308787 -0.000631854)
(0.0144427 0.00378511 -0.000539942)
(0.0136816 0.00556449 -0.000554469)
(0.0117895 0.00954259 -0.000713875)
(0.00815797 0.0160765 -0.000730473)
(0.00229088 0.0189598 -0.000393364)
(0.0014311 -0.0194902 0.00526983)
(-0.00352818 -0.053683 0.000489719)
(-0.00362416 -0.0344351 -0.00256346)
(-0.0039099 -0.0190663 -0.00462322)
(-0.00365108 -0.00732414 -0.00642958)
(-0.00521217 -0.000811805 -0.00736594)
(-0.00602337 0.00445232 -0.00727525)
(-0.0067835 0.00733162 -0.00707432)
(-0.0076741 0.00671929 -0.00759094)
(-0.00923353 0.00596833 -0.00815284)
(-0.00996799 0.00650572 -0.00834678)
(-0.00830669 0.0100761 -0.00790433)
(-0.00758865 0.0125987 -0.00733219)
(-0.00590968 0.0137878 -0.00658348)
(-0.00382408 0.0138129 -0.00578031)
(-0.00124381 0.0134391 -0.00474739)
(0.000985246 0.0127133 -0.0035964)
(0.00326158 0.0115837 -0.00231202)
(0.00548467 0.0103328 -0.00125101)
(0.00725255 0.00875398 -0.0004376)
(0.00904491 0.00759632 0.000143001)
(0.0108358 0.0066388 0.000549705)
(0.0114396 0.00560106 0.000683318)
(0.0124181 0.00485305 0.000698707)
(0.0129187 0.00431341 0.000595484)
(0.0134415 0.00389581 0.000397328)
(0.0137856 0.00363266 0.000173817)
(0.013626 0.00372927 -0.000142404)
(0.0134674 0.00460484 -0.000633459)
(0.0130353 0.00628444 -0.00113482)
(0.0121553 0.00947563 -0.0015587)
(0.010905 0.0165274 -0.00189615)
(0.00862082 0.0313239 -0.00208292)
(0.00483653 0.0508568 -0.00169053)
(0.000846219 0.0491371 -0.000780517)
(-0.000268971 -0.0281947 0.00239393)
(-0.000568263 -0.0500972 0.00565006)
(0.000585205 -0.0520939 0.00856658)
(0.00279694 -0.0459516 0.0100583)
(0.00571427 -0.0324155 0.0110142)
(0.00772867 -0.0206649 0.0111859)
(0.00956223 -0.00919831 0.0108784)
(0.0105227 -0.00286393 0.0105309)
(0.0108351 -0.00161519 0.0100477)
(0.0104424 -0.00366025 0.0093421)
(0.00973972 -0.0062042 0.00856268)
(0.00950306 -0.0065065 0.00808107)
(0.00920448 -0.00540902 0.00757991)
(0.00874172 -0.00421786 0.00686)
(0.00876416 -0.00251108 0.00612946)
(0.00907504 -0.00135273 0.00551546)
(0.00925216 -0.00128204 0.00482545)
(0.00979091 -0.00116021 0.00435657)
(0.0105661 -0.000439811 0.00393662)
(0.0106723 -1.50102e-05 0.00355184)
(0.0110378 0.000226388 0.00319305)
(0.0111751 -3.89005e-05 0.00285181)
(0.0116238 -0.000301436 0.00255269)
(0.0118933 -0.000270152 0.00234619)
(0.011683 0.000125072 0.00213991)
(0.0119806 0.00108047 0.00198338)
(0.0120503 0.0022677 0.00180038)
(0.0118137 0.00379591 0.00155529)
(0.0115923 0.00613589 0.00112377)
(0.0111656 0.00953878 0.00065115)
(0.010424 0.0165554 -1.82238e-05)
(0.00893236 0.0302713 -0.000880027)
(0.00609559 0.0528531 -0.00164824)
(0.00274112 0.0732125 -0.00164622)
(0.000307192 0.0621066 -0.000881699)
(2.7904e-05 -0.0294357 0.000370131)
(0.00080313 -0.0547851 0.000739202)
(0.00180275 -0.0602323 0.0011944)
(0.00274299 -0.0562421 0.00203507)
(0.00409553 -0.0476069 0.00323839)
(0.00582195 -0.037109 0.00462011)
(0.00729238 -0.0260998 0.00606632)
(0.00886723 -0.0143604 0.00761246)
(0.0102156 -0.00489102 0.00872966)
(0.0107909 -0.000132452 0.00890118)
(0.0110051 0.00260245 0.00861265)
(0.0108319 0.00365792 0.00809981)
(0.0105168 0.00409069 0.0072548)
(0.0102212 0.0038884 0.00637142)
(0.0100524 0.00348092 0.00553096)
(0.010025 0.0029847 0.0047837)
(0.0100451 0.00226943 0.00412415)
(0.00994177 0.0014547 0.00363322)
(0.00999049 0.000985781 0.00341623)
(0.00999425 0.000621446 0.00328768)
(0.0101661 0.000512096 0.0032085)
(0.0102981 0.000210195 0.00311762)
(0.0102379 -0.000255567 0.00309248)
(0.0103156 -0.000534724 0.00310696)
(0.0104323 -0.000468964 0.00312408)
(0.0105821 0.000168044 0.00313843)
(0.0105749 0.00146929 0.00309402)
(0.0105773 0.00354593 0.00293457)
(0.0104462 0.00695539 0.00266092)
(0.0102288 0.0128292 0.00227863)
(0.00946695 0.0245163 0.00159558)
(0.00777874 0.0451231 0.000508482)
(0.00479747 0.0736458 -0.000542551)
(0.00180746 0.0913795 -0.000874893)
(0.000103408 0.0713386 -0.00057824)
(7.59394e-05 -0.0338563 -0.000145275)
(0.000488138 -0.0601904 4.71207e-05)
(0.000695927 -0.0638661 0.000370657)
(0.000762991 -0.0586049 0.000770148)
(0.000627977 -0.0485751 0.00114394)
(0.000493489 -0.0383555 0.00156143)
(0.000551528 -0.0294234 0.00206085)
(0.000691482 -0.0217264 0.00259503)
(0.00125457 -0.0153257 0.0031448)
(0.00202046 -0.0105602 0.00351343)
(0.00275857 -0.0073273 0.00361089)
(0.00364531 -0.00514383 0.00355341)
(0.00437359 -0.00406747 0.00345087)
(0.00502639 -0.00351797 0.0033393)
(0.00575347 -0.00299367 0.00325684)
(0.00629035 -0.00277249 0.00323117)
(0.00680617 -0.00279204 0.00324992)
(0.00726526 -0.00293197 0.00331049)
(0.00766494 -0.0030327 0.00341494)
(0.00802529 -0.00310251 0.00355002)
(0.00837172 -0.00319759 0.00369789)
(0.00867097 -0.00333679 0.0038513)
(0.00892109 -0.00344099 0.00399688)
(0.00908674 -0.00354772 0.00412362)
(0.00932855 -0.00370612 0.00421646)
(0.00945966 -0.00318559 0.0043096)
(0.00950891 -0.00157674 0.00436945)
(0.00960819 0.00132438 0.0043213)
(0.00951293 0.00590134 0.00416585)
(0.00915273 0.0145793 0.0038804)
(0.00816527 0.0314172 0.00318575)
(0.00621135 0.0581743 0.00201926)
(0.00350516 0.089733 0.000777862)
(0.00113999 0.104799 0.000106546)
(-3.60275e-05 0.0772106 -9.56765e-05)
(5.50337e-05 -0.0351619 0.000375814)
(0.000140305 -0.061211 0.00084364)
(0.000125983 -0.0642589 0.000936084)
(-8.38998e-05 -0.0582304 0.000955738)
(-0.000355868 -0.0479974 0.000816507)
(-0.000561848 -0.0376086 0.000596532)
(-0.000653918 -0.0287015 0.000498085)
(-0.000577224 -0.0218652 0.00047366)
(-0.000337145 -0.0170343 0.00058437)
(7.11925e-05 -0.0137585 0.000819372)
(0.000589176 -0.0114082 0.00109645)
(0.00118399 -0.00968991 0.00139237)
(0.00176999 -0.008475 0.00169078)
(0.00239542 -0.00768459 0.001985)
(0.00295458 -0.00720005 0.00227742)
(0.00353034 -0.00687941 0.0025684)
(0.00414008 -0.00664654 0.00286896)
(0.00464797 -0.00651265 0.00317204)
(0.00514833 -0.00648446 0.00347222)
(0.00562379 -0.00653067 0.00376876)
(0.00608199 -0.00662059 0.00405787)
(0.00650084 -0.00668658 0.00433535)
(0.00689416 -0.0067171 0.00459296)
(0.00726875 -0.00669592 0.004818)
(0.00751859 -0.00637365 0.00501475)
(0.00770025 -0.00560825 0.00516308)
(0.00792615 -0.00364451 0.00532728)
(0.00789014 0.000546171 0.00550701)
(0.00772225 0.00664262 0.00559278)
(0.00726831 0.0189825 0.00546082)
(0.00614643 0.040907 0.0048821)
(0.00441552 0.0716232 0.00377274)
(0.00239079 0.102822 0.00244081)
(0.000756508 0.114759 0.00138628)
(-2.26939e-05 0.0806432 0.000445132)
(4.81222e-05 -0.0354728 0.0012676)
(7.35128e-05 -0.061796 0.00260931)
(-0.000125297 -0.0642388 0.00298613)
(-0.000454216 -0.0576915 0.00298824)
(-0.000808556 -0.0474969 0.0027944)
(-0.00102111 -0.0376089 0.00251624)
(-0.00109836 -0.0297266 0.00225889)
(-0.000993767 -0.0241165 0.00209079)
(-0.00074702 -0.0203863 0.00204801)
(-0.00039471 -0.0178341 0.00212911)
(3.15195e-05 -0.0160078 0.00230124)
(0.00050397 -0.0147034 0.00253169)
(0.00100906 -0.013782 0.00279525)
(0.00152007 -0.0131413 0.00307399)
(0.00203951 -0.0127277 0.00335495)
(0.00257447 -0.0124677 0.00363804)
(0.00306411 -0.0122296 0.00393811)
(0.00356133 -0.0120849 0.00423909)
(0.00407555 -0.0120404 0.00453734)
(0.00453352 -0.0120112 0.0048217)
(0.00498285 -0.0120055 0.00508641)
(0.00540689 -0.0119881 0.00532883)
(0.00581564 -0.0119309 0.00554318)
(0.00613647 -0.011681 0.00573584)
(0.00640884 -0.0111574 0.00592951)
(0.00667321 -0.00989188 0.00620034)
(0.00680907 -0.00749951 0.00649352)
(0.00679615 -0.00233306 0.00687239)
(0.00653688 0.00592387 0.00720563)
(0.00590856 0.0203612 0.00732916)
(0.00468985 0.0451503 0.00698086)
(0.0031433 0.0780274 0.00603638)
(0.00162664 0.109384 0.00469648)
(0.000585748 0.119793 0.00329613)
(0.000103749 0.0824084 0.00157234)
(2.56077e-05 -0.0363056 0.00189331)
(5.53648e-05 -0.0633611 0.00376194)
(-0.000133691 -0.0656797 0.00446639)
(-0.000413798 -0.0588865 0.0046885)
(-0.000690344 -0.0486807 0.00460845)
(-0.000851993 -0.039031 0.00433018)
(-0.000933284 -0.031526 0.00401405)
(-0.000880599 -0.0263988 0.00377473)
(-0.00071019 -0.0231341 0.00366545)
(-0.00044626 -0.0209739 0.00367545)
(-0.000122636 -0.0194876 0.00375464)
(0.000243545 -0.0184598 0.00387825)
(0.00064045 -0.0177353 0.00403127)
(0.00105563 -0.0172153 0.00420266)
(0.00146974 -0.0168476 0.00438167)
(0.0018957 -0.0166141 0.00456058)
(0.00230031 -0.0164644 0.00474414)
(0.00270957 -0.0164012 0.0049411)
(0.00313958 -0.0164069 0.00514526)
(0.00352935 -0.0164253 0.00533232)
(0.00391807 -0.0164423 0.00549991)
(0.00429859 -0.0164119 0.00564707)
(0.00461812 -0.0162393 0.00578414)
(0.00490596 -0.0158916 0.00594772)
(0.00518979 -0.015103 0.00618548)
(0.00535568 -0.0135816 0.00646931)
(0.00547852 -0.010665 0.00688)
(0.0054533 -0.00441396 0.00749588)
(0.00516369 0.00664237 0.00816288)
(0.00455972 0.023746 0.00868682)
(0.00354253 0.052396 0.00882984)
(0.00230726 0.085719 0.00813124)
(0.00118447 0.114684 0.00682785)
(0.000524079 0.122833 0.00510557)
(0.000186355 0.0825953 0.00243054)
(8.72693e-05 -0.0371355 0.00231916)
(8.83656e-05 -0.0650316 0.00455237)
(-0.000193447 -0.0675399 0.00547067)
(-0.000487135 -0.0608931 0.00589217)
(-0.000786791 -0.0509083 0.00601618)
(-0.000959697 -0.0416526 0.00589322)
(-0.00098401 -0.0347903 0.00564236)
(-0.00089375 -0.0303384 0.00540495)
(-0.000726981 -0.0275331 0.0052755)
(-0.000508006 -0.0256541 0.00520672)
(-0.00023618 -0.0243549 0.00518646)
(7.45984e-05 -0.0234428 0.00519384)
(0.000417281 -0.0227791 0.00522)
(0.000782393 -0.0222778 0.00525965)
(0.00116216 -0.0218971 0.00530748)
(0.00154586 -0.0216263 0.00535714)
(0.00194627 -0.0214746 0.00540209)
(0.00232286 -0.0214165 0.00545296)
(0.00270604 -0.0214347 0.00551706)
(0.00310012 -0.0214875 0.00557525)
(0.00346395 -0.0214984 0.00561495)
(0.00380248 -0.0214105 0.00563257)
(0.00411263 -0.0212054 0.00568656)
(0.0044301 -0.0207381 0.00581345)
(0.00466 -0.0198184 0.00598416)
(0.00483927 -0.0181256 0.0062583)
(0.00492168 -0.0148807 0.00674776)
(0.0048893 -0.00819094 0.00752554)
(0.00457103 0.00531922 0.00851423)
(0.00406229 0.0224932 0.00916069)
(0.00341765 0.05247 0.00957711)
(0.00263819 0.0871709 0.00949071)
(0.00181328 0.115894 0.00848974)
(0.000991693 0.123739 0.0066535)
(0.000317083 0.0831407 0.00325414)
(8.64339e-05 -0.0382123 0.00214035)
(0.00018534 -0.0672734 0.00416325)
(9.31787e-05 -0.0701921 0.00506794)
(-0.000106743 -0.0638722 0.00553755)
(-0.00037991 -0.0542039 0.00577117)
(-0.00048443 -0.0451541 0.00579573)
(-0.000501792 -0.0384681 0.00569131)
(-0.00046042 -0.0342256 0.00556679)
(-0.000374386 -0.0316189 0.00549902)
(-0.000244011 -0.0299567 0.00543627)
(-5.23235e-05 -0.0288667 0.00538506)
(0.000187997 -0.0281315 0.00534121)
(0.000471943 -0.027609 0.00530321)
(0.000791385 -0.0272215 0.0052695)
(0.0011395 -0.0269363 0.00523731)
(0.00151327 -0.0267441 0.00520277)
(0.00189984 -0.0266375 0.0051596)
(0.00229575 -0.0266299 0.00512326)
(0.00271768 -0.0266991 0.00509022)
(0.00312343 -0.0267853 0.00504547)
(0.00353454 -0.0268426 0.00499034)
(0.00392393 -0.0267994 0.00491665)
(0.00429539 -0.0266217 0.00487604)
(0.00469198 -0.0261537 0.00489612)
(0.005028 -0.0251573 0.00497865)
(0.00533325 -0.0232969 0.00517562)
(0.00558171 -0.0197081 0.005589)
(0.00580335 -0.0121734 0.00629356)
(0.00577901 0.00291879 0.0072309)
(0.00530582 0.0212169 0.00794742)
(0.00415673 0.052621 0.00866235)
(0.00299694 0.0879912 0.00861885)
(0.00161002 0.118161 0.00784285)
(0.000529132 0.128875 0.00642636)
(0.000104438 0.0848271 0.00329055)
(0.000143702 -0.0397065 0.00186652)
(0.000276912 -0.0699889 0.00354035)
(0.000176476 -0.0731394 0.00431914)
(3.6964e-07 -0.0668409 0.00477565)
(-0.000261576 -0.0572215 0.00504589)
(-0.000389599 -0.0483886 0.00514195)
(-0.000410582 -0.0419904 0.00513596)
(-0.000378763 -0.0380123 0.00512082)
(-0.000319356 -0.0356207 0.00506027)
(-0.000221398 -0.0341775 0.00500127)
(-8.02297e-05 -0.0332974 0.00494761)
(0.000106821 -0.0327442 0.00489726)
(0.000332988 -0.0323735 0.00484926)
(0.000592111 -0.0321138 0.00480162)
(0.000878236 -0.0319422 0.00475186)
(0.00118059 -0.0318608 0.00469698)
(0.00149765 -0.0318871 0.00464201)
(0.00183226 -0.0320069 0.00458216)
(0.00216101 -0.0321766 0.0045121)
(0.00248691 -0.0323668 0.00443515)
(0.00280875 -0.0325325 0.00435379)
(0.00310277 -0.0325952 0.00426671)
(0.00338366 -0.0324994 0.00421123)
(0.00366975 -0.03211 0.00421419)
(0.00391095 -0.0311512 0.00428873)
(0.0041202 -0.0292618 0.00448054)
(0.00426209 -0.0254467 0.00488563)
(0.00439694 -0.0169126 0.00558842)
(0.00444387 0.000347693 0.00647088)
(0.00388693 0.0224725 0.00707044)
(0.00275167 0.0567368 0.00760679)
(0.0015854 0.0954638 0.00763108)
(0.000573382 0.124751 0.00697202)
(0.000151827 0.127841 0.00561417)
(0.000107904 0.0837097 0.00302459)
(0.000164554 -0.0411285 0.00156438)
(0.000331131 -0.0724807 0.00289704)
(0.000221526 -0.0758534 0.00351753)
(6.97005e-05 -0.0695749 0.00389175)
(-8.93204e-05 -0.0601222 0.0041159)
(-0.00017884 -0.0515574 0.00420506)
(-0.000218189 -0.0453675 0.00421957)
(-0.000200459 -0.0415306 0.00423374)
(-0.000180315 -0.0392868 0.0042018)
(-0.000146083 -0.0379977 0.00416347)
(-7.36605e-05 -0.0372634 0.00412479)
(4.16243e-05 -0.0368333 0.00408718)
(0.000194221 -0.036559 0.00405111)
(0.000377886 -0.0363688 0.00401434)
(0.000586182 -0.0362431 0.00397383)
(0.000808218 -0.0361927 0.00392698)
(0.00103816 -0.0362351 0.00387305)
(0.00126992 -0.0363547 0.00380872)
(0.00149109 -0.0365119 0.00373273)
(0.0016992 -0.0366736 0.00364835)
(0.00189178 -0.0367964 0.00356039)
(0.00205482 -0.0368113 0.00347412)
(0.0021997 -0.0366681 0.00341934)
(0.00233254 -0.0361982 0.00341335)
(0.00242624 -0.0351362 0.00347349)
(0.00247872 -0.0331467 0.00365645)
(0.00242101 -0.029085 0.00406743)
(0.00233117 -0.0196524 0.00484113)
(0.00236316 -0.00104395 0.00585888)
(0.00191688 0.0241976 0.00649146)
(0.0011831 0.0585816 0.00677853)
(0.00075937 0.0946482 0.00661152)
(0.000442986 0.121464 0.00597636)
(0.000466736 0.126585 0.00491645)
(0.000323438 0.0828041 0.00281013)
(0.000147886 -0.0425248 0.00133185)
(0.000321472 -0.0747837 0.00241592)
(0.000279318 -0.0783593 0.00290924)
(0.000163256 -0.0722136 0.00320051)
(-3.89545e-05 -0.063 0.00336681)
(-0.000119118 -0.0545173 0.00341489)
(-0.000112779 -0.0482887 0.00339566)
(-0.000103897 -0.0444396 0.00338184)
(-0.000116415 -0.0422686 0.00333881)
(-0.000124539 -0.0411098 0.00329473)
(-0.000104624 -0.0405294 0.00325313)
(-5.00727e-05 -0.0402475 0.00321463)
(3.75588e-05 -0.0401029 0.00317867)
(0.000154764 -0.0400173 0.00314176)
(0.000296535 -0.0399657 0.00309915)
(0.000455634 -0.0399616 0.00304753)
(0.000623735 -0.0400223 0.00298379)
(0.000790589 -0.0401393 0.002905)
(0.000948333 -0.0402868 0.00281066)
(0.00109126 -0.0404334 0.00270275)
(0.00121643 -0.0405407 0.00258499)
(0.00131707 -0.0405464 0.00246136)
(0.00139555 -0.0403812 0.00234915)
(0.00146122 -0.039887 0.00226067)
(0.00151322 -0.0388303 0.0022219)
(0.00152847 -0.0368917 0.00228313)
(0.00144133 -0.0328994 0.00251426)
(0.0013328 -0.0233538 0.00305344)
(0.00149862 -0.00405691 0.00395727)
(0.00143251 0.0229439 0.00474035)
(0.000837912 0.0579532 0.00514647)
(0.000629424 0.0945391 0.00510028)
(0.00048911 0.121056 0.00462333)
(0.000426097 0.125395 0.00389764)
(0.00033871 0.0815808 0.00229149)
(0.000163263 -0.0436946 0.00110263)
(0.000317693 -0.0766857 0.00197709)
(0.000225823 -0.0805094 0.00240002)
(5.83634e-05 -0.0745606 0.00266898)
(-0.000128155 -0.0654262 0.00283548)
(-0.00018944 -0.0569355 0.00289092)
(-0.000205024 -0.0506809 0.00287643)
(-0.000212964 -0.0468449 0.00285585)
(-0.00024799 -0.0447388 0.00280309)
(-0.000290771 -0.0436722 0.00274459)
(-0.000315294 -0.0431836 0.00268372)
(-0.000312715 -0.0429839 0.00262383)
(-0.000282218 -0.0429168 0.00256556)
(-0.000228276 -0.0429013 0.00250524)
(-0.000150726 -0.0429103 0.00244002)
(-5.40124e-05 -0.0429466 0.00236581)
(5.05471e-05 -0.0430075 0.00227844)
(0.000155794 -0.0430874 0.00217628)
(0.000253142 -0.0431755 0.00205914)
(0.00033773 -0.0432484 0.00192907)
(0.000405623 -0.0432749 0.00179051)
(0.000454666 -0.043194 0.00164701)
(0.000486523 -0.0429063 0.0015046)
(0.000500563 -0.0422843 0.00137332)
(0.000504526 -0.0411486 0.00126669)
(0.000486643 -0.0392009 0.00122114)
(0.000329957 -0.0352331 0.00127247)
(8.66297e-05 -0.0256334 0.00151128)
(0.000210591 -0.00610477 0.00209048)
(0.000362492 0.0225163 0.00277754)
(0.000555992 0.0570196 0.0032637)
(0.000666612 0.0924143 0.00338817)
(0.000443004 0.120438 0.00318174)
(0.000566165 0.124426 0.00274874)
(0.000444168 0.0801289 0.00174902)
(0.000146981 -0.0446664 0.000809279)
(0.000286223 -0.0782037 0.00141865)
(0.000210918 -0.0822382 0.00171355)
(0.000102103 -0.076633 0.00191306)
(-5.00661e-05 -0.0677574 0.00205648)
(-0.000140734 -0.0592834 0.00212518)
(-0.000156973 -0.0529107 0.00213259)
(-0.000165632 -0.0489651 0.00212353)
(-0.000210662 -0.0468277 0.00207771)
(-0.000273626 -0.0457861 0.00202313)
(-0.000322135 -0.0453492 0.00196505)
(-0.000343183 -0.0452172 0.0019098)
(-0.00033473 -0.0452167 0.00185806)
(-0.000301464 -0.0452596 0.00180593)
(-0.00024875 -0.0453225 0.00174868)
(-0.000180472 -0.0453924 0.001682)
(-0.000103482 -0.0454611 0.00160286)
(-2.38546e-05 -0.0455229 0.00151)
(5.27192e-05 -0.0455716 0.00140325)
(0.000123291 -0.0455984 0.00128478)
(0.0001838 -0.0455641 0.00115426)
(0.000229305 -0.0454024 0.00101252)
(0.000260348 -0.0450351 0.000859927)
(0.000282672 -0.0443468 0.000698367)
(0.000304994 -0.0431769 0.000532438)
(0.000287726 -0.041277 0.000377028)
(0.000143999 -0.037529 0.000224858)
(-7.80062e-05 -0.0284272 0.00012474)
(-2.95036e-05 -0.00925671 0.000291025)
(3.6444e-05 0.0198794 0.000707515)
(0.00015257 0.0558893 0.00112052)
(0.000676376 0.0931353 0.00142186)
(0.000532687 0.119788 0.00156744)
(0.00072892 0.123653 0.00143924)
(0.000590283 0.07908 0.000974223)
(0.000161322 -0.0454101 0.000610628)
(0.000318735 -0.0794985 0.00107026)
(0.000369562 -0.0836863 0.00130687)
(0.000281118 -0.0783035 0.00147145)
(6.25244e-05 -0.0695717 0.00158561)
(7.82483e-06 -0.0610798 0.00163462)
(-1.36259e-05 -0.054607 0.00163625)
(-2.99916e-05 -0.050581 0.0016238)
(-8.47107e-05 -0.0484247 0.00157691)
(-0.000171361 -0.0474177 0.00152043)
(-0.000248762 -0.047074 0.00146169)
(-0.000297103 -0.0470454 0.00140507)
(-0.000318184 -0.0471264 0.00135202)
(-0.000313074 -0.0472264 0.00130004)
(-0.000284934 -0.0473116 0.00124506)
(-0.000238482 -0.0473789 0.00118304)
(-0.000178855 -0.0474326 0.00111093)
(-0.000112473 -0.0474713 0.0010269)
(-4.32329e-05 -0.047502 0.000931627)
(2.58436e-05 -0.0475024 0.000824076)
(8.90618e-05 -0.0474162 0.000704734)
(0.000145071 -0.0471877 0.000572816)
(0.000194876 -0.046739 0.000425979)
(0.000245946 -0.0459586 0.00025939)
(0.000300266 -0.0446966 7.02832e-05)
(0.000318092 -0.0426969 -0.000137029)
(0.000190249 -0.0387937 -0.000409477)
(-7.62191e-06 -0.0294411 -0.000771104)
(-5.19936e-05 -0.00997861 -0.000998347)
(0.000223716 0.0194924 -0.000801982)
(0.000195505 0.0549618 -0.000480613)
(0.000373069 0.0925599 -0.000104174)
(0.000610469 0.118948 0.000158963)
(0.000871326 0.123618 0.000243424)
(0.000499474 0.0786047 0.000214556)
(0.000167353 -0.0463348 0.000378078)
(0.000394666 -0.0814773 0.00070097)
(0.000411246 -0.0859568 0.000851905)
(0.000219161 -0.0803312 0.000926828)
(1.02429e-05 -0.0713874 0.00097472)
(4.52692e-06 -0.0627869 0.00100149)
(1.42634e-05 -0.0561893 0.0010182)
(2.10316e-05 -0.0520465 0.00100851)
(-1.96958e-05 -0.0498233 0.000975035)
(-0.000100566 -0.048794 0.000929658)
(-0.000182253 -0.0484603 0.000879234)
(-0.000246993 -0.0484724 0.000830399)
(-0.000291868 -0.0486206 0.000785087)
(-0.000313568 -0.0488021 0.000740792)
(-0.00031167 -0.0489702 0.000693266)
(-0.000290109 -0.0491065 0.000638402)
(-0.000254488 -0.0492043 0.000573405)
(-0.000210464 -0.0492607 0.000496368)
(-0.000161973 -0.0492874 0.000407718)
(-0.000114777 -0.0492666 0.000306339)
(-7.60755e-05 -0.0491497 0.000192548)
(-4.62083e-05 -0.048892 6.45986e-05)
(-2.22401e-05 -0.048428 -8.09714e-05)
(-2.22553e-06 -0.0476598 -0.000251273)
(2.80883e-05 -0.0464337 -0.000456152)
(3.3759e-05 -0.0444509 -0.000707558)
(-0.000124339 -0.0404185 -0.00108201)
(-0.000315982 -0.0304585 -0.00165624)
(-0.000181346 -0.00995075 -0.00216979)
(-0.000500915 0.0199685 -0.00226082)
(-0.000604833 0.0555032 -0.00199977)
(0.000338544 0.0927346 -0.0015869)
(0.000392932 0.120163 -0.00127518)
(0.000627219 0.124049 -0.000884572)
(0.000741972 0.0785395 -0.000382535)
(0.000176141 -0.0467008 0.000301194)
(0.000366586 -0.081963 0.000614147)
(0.000348532 -0.0864441 0.000742873)
(0.000327035 -0.0810368 0.000767497)
(0.000255839 -0.0723929 0.000720216)
(0.000199546 -0.0639912 0.000642405)
(0.000170182 -0.0573483 0.000585121)
(0.00015992 -0.0531457 0.000534137)
(0.000104837 -0.0508748 0.000488922)
(8.85224e-06 -0.0498152 0.000445989)
(-9.21687e-05 -0.0494717 0.000404802)
(-0.000180311 -0.0494981 0.000367479)
(-0.000253101 -0.0496804 0.000333948)
(-0.00030799 -0.0499005 0.000301119)
(-0.00034436 -0.050099 0.000265224)
(-0.000363782 -0.0502489 0.000222747)
(-0.000370156 -0.0503396 0.000171044)
(-0.000367147 -0.0503897 0.000108581)
(-0.000358176 -0.0503904 3.38788e-05)
(-0.000347276 -0.0502974 -5.17791e-05)
(-0.000337811 -0.0500862 -0.000150119)
(-0.000334008 -0.0497215 -0.000264365)
(-0.000338809 -0.0491473 -0.000398549)
(-0.000344056 -0.048276 -0.00055984)
(-0.000346726 -0.0469655 -0.000761845)
(-0.000398673 -0.0449222 -0.0010231)
(-0.000604832 -0.0407794 -0.00143487)
(-0.000854328 -0.0305142 -0.00211323)
(-0.000450402 -0.00951623 -0.00290159)
(0.000306202 0.0213714 -0.00334725)
(0.000240951 0.0567856 -0.00327664)
(-0.000156116 0.0924567 -0.00287303)
(-7.12797e-05 0.119962 -0.00238515)
(0.000330912 0.122965 -0.00186424)
(0.000298733 0.0783124 -0.000924251)
(0.000149097 -0.0475082 0.000324505)
(0.000309237 -0.0843401 0.000688561)
(0.000309304 -0.0895067 0.000857237)
(0.000193255 -0.084023 0.000928669)
(-1.66392e-05 -0.0743093 0.000949486)
(-0.000154124 -0.064878 0.000881734)
(-0.000222533 -0.0579439 0.000774987)
(-0.000242541 -0.053725 0.000677544)
(-0.000285521 -0.0514791 0.000596477)
(-0.000360843 -0.0504362 0.000523661)
(-0.000437411 -0.0501148 0.000455014)
(-0.000501335 -0.0501697 0.000390393)
(-0.000553122 -0.0503838 0.000331181)
(-0.000593221 -0.0506427 0.000275528)
(-0.000621846 -0.0508842 0.000220919)
(-0.000639188 -0.0510765 0.000164677)
(-0.000647444 -0.0512037 0.000104316)
(-0.000649659 -0.051262 3.78226e-05)
(-0.000647044 -0.0512716 -3.53696e-05)
(-0.000641543 -0.0512069 -0.000117654)
(-0.000635603 -0.0510101 -0.000209324)
(-0.000631989 -0.0506475 -0.000314237)
(-0.000634683 -0.0500621 -0.000436399)
(-0.0006366 -0.0491626 -0.000583424)
(-0.000631728 -0.0478064 -0.000770903)
(-0.000685444 -0.0457127 -0.0010237)
(-0.000978339 -0.0415065 -0.00144115)
(-0.00127105 -0.0308815 -0.00216855)
(-0.00107565 -0.0096304 -0.00305462)
(-0.000618394 0.0217278 -0.00366409)
(-0.000418767 0.0574797 -0.00369727)
(0.000190041 0.0936326 -0.003459)
(0.000223113 0.120195 -0.00304277)
(0.000548067 0.123305 -0.00251456)
(0.000622399 0.0782977 -0.00132175)
(8.46677e-05 -0.0476052 0.00020974)
(0.00019687 -0.0841759 0.000513379)
(0.000143045 -0.0891535 0.000703417)
(-6.24454e-05 -0.0838199 0.000836094)
(-0.000333423 -0.0743925 0.000959739)
(-0.000496237 -0.0651827 0.00100063)
(-0.000554224 -0.0584932 0.000958389)
(-0.000565124 -0.0544196 0.000882426)
(-0.00060682 -0.052247 0.000796721)
(-0.000673428 -0.0512373 0.000705218)
(-0.000733139 -0.0509323 0.000610217)
(-0.000780735 -0.0509908 0.000516228)
(-0.000819565 -0.0511948 0.000429526)
(-0.000849976 -0.0514353 0.000350386)
(-0.000872113 -0.051651 0.000276721)
(-0.000887029 -0.0518085 0.000205601)
(-0.000895423 -0.0518901 0.000134033)
(-0.00089811 -0.0519278 6.02116e-05)
(-0.000895899 -0.0519137 -1.95364e-05)
(-0.000888942 -0.0517912 -0.000102734)
(-0.000877861 -0.0515412 -0.000192008)
(-0.000864445 -0.051131 -0.000290109)
(-0.000851354 -0.050503 -0.000401081)
(-0.000834076 -0.0495639 -0.000534231)
(-0.000800881 -0.0481693 -0.000706013)
(-0.000831222 -0.0460233 -0.000944601)
(-0.00109425 -0.0416827 -0.00135112)
(-0.00146974 -0.0307594 -0.00207283)
(-0.00133564 -0.0090498 -0.00298522)
(-0.000809957 0.0226389 -0.00367081)
(-0.000572788 0.0586832 -0.00374585)
(-9.642e-05 0.0945504 -0.00351992)
(-0.000120558 0.120342 -0.00322176)
(0.000686749 0.123734 -0.00268779)
(0.00109233 0.0784083 -0.0014291)
(9.92046e-05 -0.0481372 3.45242e-05)
(0.000202506 -0.0854442 0.000199912)
(0.000145993 -0.0906605 0.000338243)
(-6.13573e-05 -0.0852664 0.000457149)
(-0.000342794 -0.0758244 0.00061042)
(-0.000522883 -0.0662282 0.000708579)
(-0.000589308 -0.0593371 0.000753982)
(-0.00061133 -0.055174 0.000743939)
(-0.000654448 -0.0529672 0.00069602)
(-0.000720634 -0.0519421 0.000623496)
(-0.000776459 -0.0516248 0.000539566)
(-0.000815638 -0.0516676 0.000455783)
(-0.000843285 -0.0518537 0.000381092)
(-0.000862367 -0.052079 0.000315713)
(-0.000873816 -0.0522887 0.00025705)
(-0.00087862 -0.0524538 0.000201536)
(-0.0008775 -0.0525564 0.000146113)
(-0.000871166 -0.0525963 8.86802e-05)
(-0.000860004 -0.0526012 2.72956e-05)
(-0.000845226 -0.0525423 -4.01851e-05)
(-0.000829084 -0.0523581 -0.000112888)
(-0.000812372 -0.0520123 -0.000194092)
(-0.000795071 -0.0514448 -0.000287401)
(-0.000779301 -0.0505601 -0.000401725)
(-0.00076718 -0.0492078 -0.000553968)
(-0.000813728 -0.0470912 -0.000774771)
(-0.00107357 -0.0427609 -0.00116727)
(-0.0015279 -0.031659 -0.00189501)
(-0.0014428 -0.00953974 -0.00286948)
(-0.00112402 0.0225945 -0.00366957)
(-0.000777036 0.0588672 -0.00383277)
(-0.000305459 0.0947561 -0.00359498)
(-0.000523964 0.120364 -0.00328361)
(0.000509448 0.122573 -0.00271337)
(0.00106356 0.0783715 -0.00149127)
(0.000129971 -0.0480988 -0.000153675)
(0.000163168 -0.0853905 -7.82078e-05)
(5.31993e-05 -0.0906086 -6.54899e-06)
(-0.000178425 -0.0852063 1.12602e-05)
(-0.000497051 -0.0753214 -6.65547e-07)
(-0.000633778 -0.0664223 5.98993e-05)
(-0.000685245 -0.0598702 0.000149173)
(-0.000699331 -0.0559202 0.000205547)
(-0.000732348 -0.0538318 0.000222258)
(-0.000795146 -0.0528684 0.000211384)
(-0.000850461 -0.0525809 0.000188787)
(-0.000891925 -0.0526371 0.000165845)
(-0.000926712 -0.0528246 0.000149062)
(-0.000954909 -0.0530401 0.000137032)
(-0.00097625 -0.0532274 0.000126491)
(-0.000991759 -0.0533578 0.000114134)
(-0.00100363 -0.0534182 9.77772e-05)
(-0.00101242 -0.0534433 7.43561e-05)
(-0.00101924 -0.0534194 4.31668e-05)
(-0.00102816 -0.0532874 7.19182e-06)
(-0.001043 -0.0530329 -3.51451e-05)
(-0.00106372 -0.0526253 -8.59628e-05)
(-0.00109485 -0.0520068 -0.000147826)
(-0.00113287 -0.0510808 -0.00022762)
(-0.00117043 -0.0496925 -0.000341737)
(-0.00129289 -0.0475217 -0.000520632)
(-0.00169966 -0.0430125 -0.000864123)
(-0.0022658 -0.0313251 -0.00156591)
(-0.0022008 -0.00863084 -0.00253254)
(-0.00180033 0.0242396 -0.00339782)
(-0.00139972 0.0624354 -0.00379028)
(-0.000540923 0.0977657 -0.00360776)
(3.85368e-05 0.118342 -0.00315016)
(0.0010038 0.121031 -0.00270195)
(0.000954104 0.0778725 -0.00154136)
(0.000135368 -0.0482478 -0.000129779)
(0.000246681 -0.0858089 -3.08325e-05)
(6.26334e-05 -0.091157 -7.36721e-06)
(-0.000310833 -0.0859051 -7.32624e-05)
(-0.00060917 -0.0764457 -0.000233741)
(-0.000798085 -0.0671676 -0.00031756)
(-0.000788637 -0.0606043 -0.00030249)
(-0.000729122 -0.0566658 -0.000261256)
(-0.000733155 -0.0545677 -0.000220456)
(-0.000753566 -0.0535781 -0.000183877)
(-0.000784979 -0.0532568 -0.000146568)
(-0.000816725 -0.0532803 -0.000103999)
(-0.000843785 -0.0534451 -5.61259e-05)
(-0.000868651 -0.053649 -6.24803e-06)
(-0.000890306 -0.0538351 4.18755e-05)
(-0.000907632 -0.0539709 8.55063e-05)
(-0.000921043 -0.0540374 0.000123301)
(-0.000932637 -0.0540565 0.000153327)
(-0.00094566 -0.0540185 0.000178009)
(-0.000961839 -0.0538776 0.000198554)
(-0.000982967 -0.0536194 0.000214256)
(-0.00101326 -0.053215 0.000223558)
(-0.00104844 -0.0526069 0.000224591)
(-0.00109156 -0.0516989 0.000211646)
(-0.0011375 -0.0503345 0.000173334)
(-0.00124449 -0.0482196 8.93146e-05)
(-0.0017117 -0.0439129 -0.000114536)
(-0.00224022 -0.0327779 -0.000607536)
(-0.00204741 -0.0102299 -0.00153427)
(-0.00169697 0.0223518 -0.00259312)
(-0.00105139 0.0588888 -0.00319236)
(-8.52249e-05 0.0940536 -0.00321366)
(0.000351989 0.117822 -0.00292389)
(0.00114198 0.120746 -0.00248349)
(0.00116703 0.0778907 -0.00140645)
(0.000238248 -0.0481666 2.4888e-05)
(0.000295901 -0.0856424 0.000288031)
(4.85701e-06 -0.0905232 0.000431304)
(-0.000464057 -0.0855049 0.000358794)