/*--------------------------------*- C++ -*----------------------------------*\
| =========                 |                                                 |
| \\      /  F ield         | OpenFOAM: The Open Source CFD Toolbox           |
|  \\    /   O peration     | Version:  2.0.x                                 |
|   \\  /    A nd           | Web:      www.OpenFOAM.org                      |
|    \\/     M anipulation  |                                                 |
\*---------------------------------------------------------------------------*/
FoamFile
{
    version     2.0;
    format      ascii;
    class       volScalarField;
    location    "200";
    object      alphat;
}
// * * * * * * * * * * * * * * * * * * * * * * * * * * * * * * * * * * * * * //

dimensions      [1 -1 -1 0 0 0 0];

internalField   nonuniform List<scalar> 
78750
(
5.77388e-09
1.25491e-05
9.60347e-06
8.59363e-06
8.38984e-06
8.39184e-06
8.5479e-06
8.64809e-06
8.91575e-06
9.11951e-06
9.65985e-06
9.98579e-06
1.03216e-05
1.07533e-05
1.08931e-05
1.10822e-05
1.18248e-05
1.1175e-05
1.16451e-05
1.27538e-05
1.22998e-05
1.22469e-05
1.21079e-05
1.18374e-05
1.18172e-05
1.14853e-05
1.1389e-05
1.14104e-05
1.10088e-05
1.07432e-05
1.04536e-05
1.01197e-05
9.41487e-06
7.25776e-06
4.52056e-08
2.7572e-09
2.11233e-06
3.42709e-06
5.09064e-06
7.05814e-06
9.91013e-06
1.30908e-05
1.72514e-05
2.05143e-05
2.1164e-05
2.339e-05
2.58872e-05
2.84622e-05
3.13346e-05
3.55166e-05
3.89512e-05
3.98455e-05
3.92415e-05
3.86512e-05
3.66093e-05
3.50402e-05
2.92456e-05
2.6192e-05
2.60693e-05
2.60914e-05
2.45908e-05
2.27629e-05
2.16429e-05
1.89962e-05
1.75006e-05
1.59195e-05
1.3853e-05
1.10511e-05
1.01286e-05
1.97903e-07
2.35745e-08
2.26848e-06
5.26236e-06
1.08545e-05
2.0696e-05
2.78698e-05
3.07129e-05
3.14879e-05
3.34112e-05
3.37518e-05
3.05645e-05
2.7437e-05
2.56441e-05
2.49523e-05
2.49552e-05
2.46432e-05
2.32538e-05
2.19971e-05
2.896e-05
3.2196e-05
2.68551e-05
3.01143e-05
3.69056e-05
4.39337e-05
4.61283e-05
4.58548e-05
3.94292e-05
3.14463e-05
2.86353e-05
2.44965e-05
2.01413e-05
1.58367e-05
1.47285e-05
1.23499e-05
2.73093e-07
6.95922e-08
3.42003e-06
1.03361e-05
2.46272e-05
3.36081e-05
3.59909e-05
3.27297e-05
2.74976e-05
2.32102e-05
1.94763e-05
1.7268e-05
1.58e-05
1.49748e-05
1.50265e-05
1.63171e-05
1.91043e-05
2.47755e-05
2.85698e-05
2.66659e-05
2.55853e-05
2.45004e-05
2.3902e-05
2.38189e-05
2.39429e-05
2.34023e-05
2.42571e-05
2.52885e-05
2.34724e-05
2.13837e-05
1.81862e-05
1.42463e-05
1.21258e-05
1.44686e-05
1.11882e-05
2.59052e-07
1.05582e-07
3.87718e-06
1.17181e-05
2.70073e-05
3.45288e-05
3.26788e-05
2.75709e-05
2.27433e-05
1.93023e-05
1.7044e-05
1.5272e-05
1.39281e-05
1.29659e-05
1.25007e-05
1.27314e-05
1.44786e-05
1.68711e-05
1.88274e-05
2.17056e-05
2.42632e-05
2.5837e-05
2.59274e-05
2.47648e-05
2.30956e-05
2.13089e-05
1.993e-05
1.8805e-05
1.74901e-05
1.56454e-05
1.31608e-05
1.06493e-05
9.43888e-06
1.26883e-05
9.60954e-06
2.56372e-07
1.20942e-07
4.27578e-06
1.35067e-05
2.9892e-05
3.54701e-05
3.23367e-05
2.71953e-05
2.2965e-05
1.99734e-05
1.79843e-05
1.65709e-05
1.55127e-05
1.45983e-05
1.384e-05
1.33784e-05
1.35074e-05
1.47826e-05
1.75594e-05
2.159e-05
2.61596e-05
3.00593e-05
3.15899e-05
3.29577e-05
3.11523e-05
2.69832e-05
2.23555e-05
1.83805e-05
1.50209e-05
1.20379e-05
9.48383e-06
7.85615e-06
7.75373e-06
1.19139e-05
8.59364e-06
2.5797e-07
1.25519e-07
4.25626e-06
1.33183e-05
2.99003e-05
3.61613e-05
3.38421e-05
2.93195e-05
2.51248e-05
2.19982e-05
1.98801e-05
1.84417e-05
1.73872e-05
1.65411e-05
1.57835e-05
1.50515e-05
1.43527e-05
1.38012e-05
1.48793e-05
1.73069e-05
1.9405e-05
2.26734e-05
2.55336e-05
2.7761e-05
2.87623e-05
2.7966e-05
2.48224e-05
1.96788e-05
1.44006e-05
1.0431e-05
7.83974e-06
6.57628e-06
6.87187e-06
1.14052e-05
8.13093e-06
2.69069e-07
1.30898e-07
4.40867e-06
1.38349e-05
3.07053e-05
3.70736e-05
3.49329e-05
3.04928e-05
2.6353e-05
2.32799e-05
2.12587e-05
2.00268e-05
1.92917e-05
1.88203e-05
1.84559e-05
1.80818e-05
1.75868e-05
1.6874e-05
1.57762e-05
1.59028e-05
1.62929e-05
1.68265e-05
1.93892e-05
2.14531e-05
2.24019e-05
2.2035e-05
2.07434e-05
1.77462e-05
1.32556e-05
9.45904e-06
7.20851e-06
6.03414e-06
6.19922e-06
1.04845e-05
8.00654e-06
2.86709e-07
1.33446e-07
4.38307e-06
1.35009e-05
3.02645e-05
3.78859e-05
3.67975e-05
3.29538e-05
2.88971e-05
2.56216e-05
2.33089e-05
2.18589e-05
2.10422e-05
2.06568e-05
2.05436e-05
2.05837e-05
2.06965e-05
2.08277e-05
2.08359e-05
1.97838e-05
1.77472e-05
1.70139e-05
1.58363e-05
1.44171e-05
1.51877e-05
1.65307e-05
1.6204e-05
1.40888e-05
1.14464e-05
8.36567e-06
6.02996e-06
4.91277e-06
5.35533e-06
9.99341e-06
7.41898e-06
3.07665e-07
1.36936e-07
4.44502e-06
1.36547e-05
3.0623e-05
3.85111e-05
3.75245e-05
3.37632e-05
2.98694e-05
2.68244e-05
2.47609e-05
2.35573e-05
2.30105e-05
2.29489e-05
2.32441e-05
2.37756e-05
2.44068e-05
2.50159e-05
2.55685e-05
2.59161e-05
2.43692e-05
2.103e-05
1.91943e-05
1.64042e-05
1.32449e-05
1.17531e-05
1.11689e-05
1.01227e-05
8.0355e-06
6.12125e-06
4.88091e-06
4.51689e-06
5.56733e-06
1.18321e-05
6.55369e-06
3.1247e-07
1.38217e-07
4.42588e-06
1.3355e-05
3.00623e-05
3.89949e-05
3.89761e-05
3.58383e-05
3.2127e-05
2.89647e-05
2.66646e-05
2.52155e-05
2.45282e-05
2.44579e-05
2.48965e-05
2.57605e-05
2.69188e-05
2.81233e-05
2.90587e-05
2.95645e-05
2.9541e-05
2.70146e-05
2.21352e-05
1.90715e-05
1.61092e-05
1.19242e-05
9.07515e-06
7.58154e-06
6.39118e-06
5.23206e-06
4.58962e-06
4.508e-06
5.83653e-06
1.25808e-05
6.38705e-06
3.20167e-07
1.39613e-07
4.42496e-06
1.32384e-05
2.99306e-05
3.94517e-05
3.97632e-05
3.68035e-05
3.32314e-05
3.02384e-05
2.81295e-05
2.68523e-05
2.63178e-05
2.64065e-05
2.70255e-05
2.81182e-05
2.96116e-05
3.13102e-05
3.27811e-05
3.3394e-05
3.26806e-05
3.06636e-05
2.73562e-05
2.17335e-05
1.79352e-05
1.50342e-05
1.09893e-05
7.9169e-06
6.11381e-06
5.02088e-06
4.30663e-06
4.21408e-06
5.15716e-06
1.0424e-05
6.70215e-06
3.67936e-07
1.4417e-07
4.43576e-06
1.30906e-05
2.95083e-05
3.97509e-05
4.08494e-05
3.84492e-05
3.51752e-05
3.22841e-05
3.01878e-05
2.89044e-05
2.83597e-05
2.85027e-05
2.92581e-05
3.05617e-05
3.2347e-05
3.44779e-05
3.66351e-05
3.8223e-05
3.84208e-05
3.66113e-05
3.2931e-05
2.81699e-05
2.1665e-05
1.53822e-05
1.36342e-05
1.03597e-05
6.69414e-06
5.10911e-06
3.99799e-06
3.52411e-06
4.50799e-06
1.03766e-05
6.19337e-06
4.06224e-07
1.4538e-07
4.44006e-06
1.2948e-05
2.91199e-05
4.00099e-05
4.17245e-05
3.97215e-05
3.67e-05
3.3977e-05
3.20111e-05
3.08533e-05
3.04309e-05
3.07184e-05
3.16877e-05
3.32995e-05
3.55036e-05
3.81893e-05
4.10931e-05
4.37136e-05
4.52854e-05
4.48349e-05
4.16035e-05
3.55106e-05
2.72893e-05
1.75024e-05
1.24108e-05
8.86596e-06
5.8123e-06
4.16478e-06
3.38805e-06
3.37406e-06
5.19125e-06
1.44545e-05
5.61382e-06
4.02727e-07
1.45977e-07
4.43127e-06
1.2679e-05
2.85871e-05
4.0217e-05
4.26455e-05
4.11108e-05
3.83398e-05
3.57038e-05
3.37394e-05
3.25614e-05
3.21164e-05
3.23512e-05
3.32744e-05
3.4858e-05
3.70519e-05
3.97511e-05
4.27204e-05
4.55091e-05
4.73831e-05
4.73115e-05
4.41555e-05
3.75564e-05
2.86955e-05
1.97036e-05
1.17565e-05
7.24847e-06
4.99062e-06
3.82783e-06
3.42639e-06
3.77878e-06
6.2199e-06
1.62228e-05
5.37988e-06
3.83856e-07
1.43046e-07
4.38911e-06
1.24263e-05
2.81012e-05
4.03262e-05
4.32094e-05
4.19363e-05
3.93584e-05
3.68865e-05
3.50593e-05
3.39872e-05
3.3615e-05
3.38619e-05
3.47022e-05
3.61089e-05
3.80046e-05
4.02499e-05
4.25904e-05
4.46119e-05
4.57053e-05
4.50707e-05
4.19134e-05
3.60892e-05
2.85698e-05
2.09193e-05
1.36167e-05
8.74874e-06
5.36482e-06
3.71413e-06
3.26718e-06
3.63899e-06
5.99026e-06
1.57338e-05
5.38326e-06
3.91912e-07
1.41483e-07
4.33709e-06
1.21454e-05
2.76248e-05
4.03406e-05
4.37152e-05
4.28291e-05
4.05031e-05
3.81949e-05
3.64348e-05
3.53763e-05
3.50087e-05
3.52561e-05
3.60402e-05
3.73309e-05
3.90321e-05
4.09833e-05
4.29443e-05
4.45665e-05
4.53772e-05
4.47786e-05
4.21609e-05
3.72478e-05
3.06153e-05
2.35396e-05
1.63936e-05
1.27728e-05
8.37144e-06
4.81967e-06
3.40614e-06
3.21734e-06
4.91468e-06
1.29549e-05
5.75832e-06
4.62664e-07
1.40636e-07
4.28133e-06
1.1923e-05
2.7311e-05
4.03061e-05
4.39057e-05
4.32511e-05
4.11106e-05
3.90254e-05
3.74719e-05
3.65834e-05
3.63695e-05
3.67659e-05
3.76853e-05
3.90357e-05
4.07115e-05
4.25193e-05
4.42088e-05
4.54755e-05
4.59529e-05
4.52218e-05
4.28618e-05
3.85236e-05
3.20737e-05
2.43456e-05
1.7487e-05
1.44575e-05
1.06273e-05
5.8935e-06
3.68134e-06
3.18034e-06
4.34428e-06
1.20633e-05
5.81138e-06
4.94388e-07
1.42508e-07
4.23408e-06
1.18429e-05
2.7313e-05
4.02755e-05
4.39062e-05
4.34911e-05
4.15766e-05
3.96805e-05
3.82505e-05
3.74041e-05
3.7167e-05
3.75014e-05
3.83423e-05
3.95691e-05
4.10437e-05
4.25313e-05
4.37126e-05
4.4248e-05
4.38204e-05
4.22012e-05
3.93012e-05
3.53137e-05
2.99579e-05
2.35088e-05
1.73481e-05
1.53075e-05
1.20197e-05
6.58879e-06
3.93388e-06
3.25486e-06
4.48475e-06
1.29982e-05
5.74872e-06
5.01645e-07
1.50243e-07
4.20289e-06
1.18916e-05
2.74961e-05
4.01255e-05
4.3642e-05
4.34061e-05
4.17104e-05
4.00492e-05
3.88383e-05
3.82172e-05
3.81151e-05
3.84325e-05
3.91738e-05
4.02459e-05
4.14541e-05
4.25045e-05
4.30472e-05
4.27006e-05
4.12031e-05
3.85149e-05
3.49091e-05
3.09222e-05
2.50861e-05
1.876e-05
1.31133e-05
1.35195e-05
1.40839e-05
9.05544e-06
5.36378e-06
3.62691e-06
4.42502e-06
1.21906e-05
6.69166e-06
6.02038e-07
1.76372e-07
4.3326e-06
1.24123e-05
2.82524e-05
4.01014e-05
4.36005e-05
4.38004e-05
4.25691e-05
4.1297e-05
4.0502e-05
4.05043e-05
4.08988e-05
4.14346e-05
4.2406e-05
4.36878e-05
4.49269e-05
4.58004e-05
4.59731e-05
4.50859e-05
4.27599e-05
3.88711e-05
3.64218e-05
2.57631e-05
1.84779e-05
1.22255e-05
1.27679e-05
1.64297e-05
1.45422e-05
1.42969e-05
8.00466e-06
4.21237e-06
3.76981e-06
7.64166e-06
6.78296e-06
8.13244e-07
2.12171e-07
4.56509e-06
1.30789e-05
2.89606e-05
4.01033e-05
4.36267e-05
4.41142e-05
4.32071e-05
4.21639e-05
4.17621e-05
4.32446e-05
4.54912e-05
4.67134e-05
4.84931e-05
5.12012e-05
5.39041e-05
5.60682e-05
5.72916e-05
5.71892e-05
5.47318e-05
4.82253e-05
2.70876e-05
1.65728e-05
1.22512e-05
1.01023e-05
1.32046e-05
1.72113e-05
1.48546e-05
1.28167e-05
9.34943e-06
5.75771e-06
6.17968e-06
1.91489e-05
6.94288e-06
8.17827e-07
2.46144e-07
4.80987e-06
1.35068e-05
2.88624e-05
3.98028e-05
4.36795e-05
4.46894e-05
4.44606e-05
4.3974e-05
4.37876e-05
4.40013e-05
4.53006e-05
4.85636e-05
5.25492e-05
5.70221e-05
6.18186e-05
6.63322e-05
7.00016e-05
7.24004e-05
7.03075e-05
4.74495e-05
2.01162e-05
1.066e-05
9.04147e-06
1.09409e-05
1.32026e-05
1.52514e-05
1.51864e-05
1.32779e-05
1.10901e-05
1.00896e-05
1.4296e-05
1.89108e-05
5.65745e-06
5.46535e-07
2.58354e-07
4.8668e-06
1.36367e-05
2.89251e-05
3.96681e-05
4.3496e-05
4.44344e-05
4.42338e-05
4.36445e-05
4.31238e-05
4.27994e-05
4.29299e-05
4.55804e-05
5.00377e-05
5.4086e-05
5.80492e-05
6.12189e-05
6.23904e-05
5.94153e-05
4.77055e-05
2.94874e-05
1.57861e-05
9.60872e-06
1.00007e-05
9.63008e-06
1.01063e-05
1.45747e-05
1.52313e-05
1.44438e-05
1.38704e-05
1.62183e-05
2.17349e-05
1.33027e-05
4.841e-06
2.91208e-07
2.5498e-07
4.93076e-06
1.34955e-05
2.84196e-05
3.95328e-05
4.35033e-05
4.39387e-05
4.2455e-05
4.13074e-05
4.08598e-05
4.09097e-05
4.21476e-05
4.4198e-05
4.65924e-05
4.90094e-05
5.12405e-05
5.28724e-05
5.34379e-05
5.21753e-05
4.73649e-05
3.57878e-05
2.14685e-05
1.34844e-05
9.91309e-06
8.06071e-06
7.21536e-06
8.87972e-06
1.2633e-05
1.3654e-05
1.57623e-05
2.01051e-05
2.2624e-05
1.33556e-05
4.65248e-06
2.28218e-07
2.26562e-07
4.74933e-06
1.27689e-05
2.73161e-05
3.90293e-05
4.31055e-05
4.32479e-05
4.21072e-05
4.08231e-05
4.01555e-05
4.02336e-05
4.0908e-05
4.22247e-05
4.38886e-05
4.56362e-05
4.74526e-05
4.91163e-05
4.99323e-05
4.91916e-05
4.65219e-05
4.19035e-05
3.46498e-05
2.31464e-05
1.4581e-05
1.15209e-05
8.36794e-06
6.59353e-06
7.79968e-06
1.09304e-05
1.38169e-05
1.83061e-05
2.25565e-05
1.65515e-05
5.16109e-06
2.52196e-07
1.9909e-07
4.48888e-06
1.18062e-05
2.60166e-05
3.86896e-05
4.27778e-05
4.30155e-05
4.18279e-05
4.06023e-05
3.99001e-05
3.99451e-05
4.05918e-05
4.17039e-05
4.3277e-05
4.5138e-05
4.70501e-05
4.87839e-05
4.99995e-05
5.02141e-05
4.88941e-05
4.56961e-05
4.09352e-05
3.58297e-05
3.14878e-05
2.42911e-05
1.54311e-05
9.03349e-06
7.212e-06
7.83572e-06
9.08968e-06
1.14889e-05
1.61162e-05
2.19004e-05
6.40698e-06
3.84782e-07
1.84191e-07
4.33763e-06
1.13346e-05
2.48961e-05
3.7842e-05
4.25995e-05
4.28482e-05
4.16073e-05
4.0439e-05
3.989e-05
3.99906e-05
4.06981e-05
4.19282e-05
4.3558e-05
4.5507e-05
4.76409e-05
4.97709e-05
5.16094e-05
5.27273e-05
5.24841e-05
5.03754e-05
4.64715e-05
4.13298e-05
3.64864e-05
3.27861e-05
2.63574e-05
1.77268e-05
1.24335e-05
8.90414e-06
7.26276e-06
7.49232e-06
9.99543e-06
1.87789e-05
7.81119e-06
4.97481e-07
1.73766e-07
4.19676e-06
1.07937e-05
2.40196e-05
3.73974e-05
4.22865e-05
4.26691e-05
4.14805e-05
4.04896e-05
4.00975e-05
4.04112e-05
4.13692e-05
4.28625e-05
4.4787e-05
4.69788e-05
4.93369e-05
5.17794e-05
5.38717e-05
5.53611e-05
5.54915e-05
5.3839e-05
4.98356e-05
4.42277e-05
3.89815e-05
3.69454e-05
3.32063e-05
2.46978e-05
1.98473e-05
1.38248e-05
8.41723e-06
6.68172e-06
7.56342e-06
1.46189e-05
9.15326e-06
5.40317e-07
1.72958e-07
4.09627e-06
1.05947e-05
2.38529e-05
3.71912e-05
4.18941e-05
4.216e-05
4.09016e-05
4.00363e-05
3.9824e-05
4.03095e-05
4.14378e-05
4.30685e-05
4.50257e-05
4.71642e-05
4.93424e-05
5.16534e-05
5.39828e-05
5.55585e-05
5.53502e-05
5.25106e-05
4.81873e-05
4.41694e-05
4.20752e-05
3.9148e-05
3.40414e-05
2.72125e-05
2.57446e-05
2.13063e-05
1.24932e-05
7.70302e-06
7.05442e-06
1.18733e-05
1.09777e-05
5.52815e-07
1.79248e-07
4.06701e-06
1.06445e-05
2.41712e-05
3.72011e-05
4.14093e-05
4.14932e-05
4.01764e-05
3.93684e-05
3.92442e-05
3.98429e-05
4.10558e-05
4.27165e-05
4.46437e-05
4.66699e-05
4.8627e-05
5.07088e-05
5.26634e-05
5.38479e-05
5.21418e-05
4.74219e-05
4.40315e-05
4.29741e-05
4.15801e-05
3.93081e-05
3.65949e-05
3.20274e-05
3.3608e-05
3.07163e-05
1.81313e-05
1.05899e-05
7.92893e-06
1.16373e-05
1.35152e-05
5.54727e-07
1.96457e-07
4.13424e-06
1.10133e-05
2.50803e-05
3.74591e-05
4.09721e-05
4.08443e-05
3.97129e-05
3.90959e-05
3.91146e-05
3.97863e-05
4.10248e-05
4.26895e-05
4.45953e-05
4.65111e-05
4.81339e-05
4.96479e-05
5.07221e-05
5.03896e-05
4.59849e-05
4.16265e-05
4.02149e-05
3.98492e-05
3.92558e-05
3.99656e-05
3.7975e-05
4.31545e-05
4.71163e-05
3.61548e-05
2.58329e-05
1.46366e-05
9.24502e-06
1.18621e-05
1.49139e-05
5.63325e-07
2.27297e-07
4.29342e-06
1.16745e-05
2.6464e-05
3.77885e-05
4.05655e-05
4.00534e-05
3.90916e-05
3.87242e-05
3.90134e-05
3.99352e-05
4.1378e-05
4.31619e-05
4.50819e-05
4.6949e-05
4.83009e-05
4.90168e-05
4.92028e-05
4.37316e-05
3.92942e-05
3.669e-05
3.53402e-05
3.64743e-05
3.96253e-05
4.23699e-05
5.32969e-05
6.36606e-05
5.47731e-05
4.8103e-05
3.75988e-05
2.36573e-05
1.32434e-05
1.29738e-05
1.65047e-05
6.10284e-07
2.70527e-07
4.55023e-06
1.26382e-05
2.82656e-05
3.82491e-05
4.03924e-05
3.99351e-05
3.92459e-05
3.90364e-05
3.95676e-05
4.07536e-05
4.24812e-05
4.44823e-05
4.65006e-05
4.83306e-05
4.9321e-05
5.01071e-05
4.32875e-05
3.68552e-05
3.25855e-05
2.99352e-05
3.03842e-05
3.40898e-05
4.89812e-05
6.77294e-05
6.91785e-05
7.16503e-05
7.00865e-05
6.30066e-05
5.00765e-05
3.17709e-05
1.84953e-05
1.6962e-05
1.41937e-05
6.30486e-07
3.22942e-07
4.82891e-06
1.36232e-05
2.97004e-05
3.84255e-05
3.97963e-05
3.94206e-05
3.91435e-05
3.90834e-05
3.97661e-05
4.1252e-05
4.33129e-05
4.55704e-05
4.77255e-05
4.9401e-05
5.01383e-05
4.58102e-05
3.91167e-05
2.9856e-05
2.45189e-05
2.61366e-05
3.35083e-05
4.58959e-05
6.50521e-05
7.87581e-05
7.87655e-05
7.85102e-05
7.41489e-05
6.38498e-05
4.84578e-05
3.27107e-05
2.42223e-05
2.92638e-05
1.17029e-05
6.21854e-07
3.75565e-07
5.18637e-06
1.49305e-05
3.0703e-05
3.85661e-05
3.9691e-05
3.92068e-05
3.8681e-05
3.89325e-05
3.97273e-05
4.12081e-05
4.31558e-05
4.52434e-05
4.72551e-05
4.88842e-05
4.87613e-05
4.31581e-05
3.16746e-05
2.29898e-05
2.16617e-05
2.68067e-05
3.80747e-05
5.34897e-05
6.65006e-05
7.33877e-05
7.6099e-05
7.4669e-05
6.89157e-05
5.88963e-05
4.6976e-05
3.76446e-05
3.63138e-05
3.83486e-05
9.76959e-06
5.2568e-07
4.03241e-07
5.35087e-06
1.55107e-05
3.19424e-05
3.87219e-05
3.99146e-05
3.95179e-05
3.89952e-05
3.88294e-05
3.94077e-05
4.05782e-05
4.22434e-05
4.43274e-05
4.62939e-05
4.77166e-05
4.75125e-05
4.20005e-05
3.02111e-05
2.21946e-05
2.08872e-05
2.51836e-05
3.65992e-05
4.98558e-05
5.73441e-05
6.47242e-05
6.78113e-05
6.64957e-05
6.22144e-05
5.63133e-05
5.07406e-05
4.82576e-05
5.04672e-05
3.71247e-05
8.71022e-06
4.27132e-07
4.05897e-07
5.40261e-06
1.5723e-05
3.15784e-05
3.82688e-05
3.91408e-05
3.83835e-05
3.76314e-05
3.7539e-05
3.81651e-05
3.94901e-05
4.12192e-05
4.30061e-05
4.46698e-05
4.58401e-05
4.56383e-05
4.1883e-05
3.1812e-05
2.1147e-05
1.7059e-05
2.04999e-05
3.16721e-05
4.15498e-05
4.78379e-05
5.73913e-05
6.27689e-05
6.28776e-05
6.04115e-05
5.7486e-05
5.60098e-05
5.78917e-05
5.70048e-05
3.21191e-05
7.86652e-06
3.53493e-07
3.90957e-07
5.39701e-06
1.56332e-05
3.14182e-05
3.82442e-05
3.93763e-05
3.87123e-05
3.79078e-05
3.73513e-05
3.74399e-05
3.81759e-05
3.95142e-05
4.10461e-05
4.2664e-05
4.40195e-05
4.44172e-05
4.21794e-05
3.48848e-05
2.50182e-05
1.74902e-05
1.58432e-05
2.14227e-05
2.89348e-05
3.51272e-05
4.66563e-05
5.48872e-05
5.81649e-05
5.85504e-05
5.81701e-05
5.91513e-05
6.27049e-05
6.01432e-05
3.18916e-05
8.02512e-06
3.3984e-07
3.73878e-07
5.34501e-06
1.5441e-05
3.13214e-05
3.8407e-05
3.93919e-05
3.84482e-05
3.73562e-05
3.66855e-05
3.68224e-05
3.76914e-05
3.91197e-05
4.06772e-05
4.2298e-05
4.37417e-05
4.45705e-05
4.38213e-05
3.97183e-05
3.07473e-05
2.03973e-05
1.46171e-05
1.63785e-05
2.02163e-05
2.48622e-05
3.51391e-05
4.40702e-05
4.96499e-05
5.34205e-05
5.66866e-05
6.07065e-05
6.4989e-05
6.17785e-05
3.28902e-05
8.22882e-06
3.46462e-07
3.45377e-07
5.20947e-06
1.48859e-05
3.08483e-05
3.85666e-05
3.97236e-05
3.88659e-05
3.76161e-05
3.67293e-05
3.6689e-05
3.73972e-05
3.84711e-05
3.99693e-05
4.16444e-05
4.32882e-05
4.43187e-05
4.41342e-05
4.16679e-05
3.51605e-05
2.69655e-05
1.88887e-05
1.35254e-05
1.47645e-05
1.86877e-05
2.35616e-05
3.24269e-05
4.10646e-05
4.74901e-05
5.27279e-05
5.84674e-05
6.37017e-05
6.22425e-05
3.51249e-05
8.77927e-06
3.8256e-07
3.22044e-07
5.11461e-06
1.44294e-05
3.03817e-05
3.8816e-05
4.00633e-05
3.90817e-05
3.76635e-05
3.69371e-05
3.68874e-05
3.71606e-05
3.84112e-05
4.01105e-05
4.15568e-05
4.28461e-05
4.40319e-05
4.46811e-05
4.30456e-05
3.82075e-05
3.023e-05
2.32061e-05
1.76557e-05
1.43043e-05
1.39487e-05
1.6929e-05
2.31133e-05
3.01555e-05
3.70382e-05
4.38435e-05
5.1784e-05
5.98746e-05
6.16703e-05
3.72313e-05
9.20128e-06
4.30837e-07
3.01116e-07
4.97856e-06
1.39488e-05
2.99575e-05
3.88971e-05
4.02071e-05
3.91021e-05
3.79656e-05
3.70072e-05
3.68274e-05
3.78323e-05
3.91079e-05
4.02372e-05
4.19266e-05
4.35503e-05
4.45972e-05
4.4339e-05
4.21202e-05
3.82085e-05
3.27176e-05
2.58234e-05
1.98456e-05
1.62165e-05
1.39504e-05
1.45059e-05
1.77935e-05
2.28049e-05
2.95786e-05
3.67364e-05
4.47666e-05
5.49359e-05
5.97371e-05
3.83457e-05
9.54367e-06
4.70346e-07
2.8537e-07
4.8765e-06
1.38201e-05
3.01926e-05
3.91504e-05
4.02946e-05
3.91806e-05
3.77359e-05
3.68969e-05
3.67236e-05
3.70212e-05
3.78798e-05
3.95094e-05
4.11945e-05
4.26494e-05
4.35579e-05
4.31578e-05
4.02293e-05
3.48042e-05
2.88618e-05
2.50569e-05
2.27863e-05
2.00158e-05
1.66534e-05
1.54129e-05
1.56756e-05
1.77054e-05
2.2135e-05
2.83936e-05
3.70106e-05
4.72698e-05
5.55632e-05
4.05602e-05
9.92179e-06
5.2531e-07
2.8519e-07
4.84193e-06
1.36652e-05
3.01451e-05
3.92801e-05
4.03069e-05
3.91261e-05
3.77748e-05
3.6936e-05
3.68699e-05
3.75214e-05
3.87469e-05
4.02069e-05
4.16521e-05
4.28516e-05
4.34094e-05
4.2412e-05
3.81383e-05
3.17412e-05
2.61079e-05
2.27381e-05
2.15663e-05
2.27641e-05
2.28495e-05
2.21859e-05
1.92352e-05
1.66681e-05
1.81233e-05
2.19291e-05
2.79274e-05
3.79798e-05
5.14764e-05
4.20124e-05
1.01919e-05
6.07227e-07
3.1082e-07
4.99703e-06
1.44073e-05
3.13704e-05
3.95138e-05
4.04588e-05
3.96177e-05
3.85656e-05
3.77873e-05
3.76192e-05
3.81652e-05
3.93733e-05
4.09921e-05
4.27411e-05
4.41179e-05
4.42831e-05
4.21677e-05
3.44783e-05
2.61266e-05
2.13972e-05
2.01703e-05
2.19371e-05
2.52764e-05
3.20472e-05
3.56586e-05
2.74655e-05
2.09574e-05
1.88985e-05
1.93891e-05
2.3426e-05
3.32817e-05
4.77812e-05
4.48096e-05
1.05513e-05
6.97164e-07
3.34459e-07
5.05141e-06
1.4727e-05
3.17458e-05
3.9367e-05
4.01522e-05
3.95544e-05
3.84664e-05
3.77095e-05
3.79188e-05
3.89815e-05
4.0672e-05
4.26991e-05
4.46271e-05
4.58566e-05
4.47581e-05
3.78235e-05
2.84358e-05
2.07538e-05
1.75197e-05
1.86876e-05
2.40385e-05
3.53102e-05
4.66527e-05
4.78387e-05
4.24851e-05
3.12622e-05
2.21882e-05
1.9308e-05
2.18622e-05
2.81623e-05
4.03349e-05
4.6511e-05
1.02439e-05
7.382e-07
3.77151e-07
5.2669e-06
1.55693e-05
3.24052e-05
3.9203e-05
4.0049e-05
3.92061e-05
3.82344e-05
3.77438e-05
3.81883e-05
3.93885e-05
4.11494e-05
4.34399e-05
4.55871e-05
4.67916e-05
4.43363e-05
3.54076e-05
2.32384e-05
1.71266e-05
1.68841e-05
2.14615e-05
3.08485e-05
4.36884e-05
5.40839e-05
5.65184e-05
5.13365e-05
4.03413e-05
2.85826e-05
2.13797e-05
1.99988e-05
2.68709e-05
4.66114e-05
4.02248e-05
9.63418e-06
7.354e-07
4.19677e-07
5.44037e-06
1.57309e-05
3.23025e-05
3.88561e-05
3.95619e-05
3.7888e-05
3.68561e-05
3.75511e-05
3.86079e-05
4.06722e-05
4.29498e-05
4.47804e-05
4.65245e-05
4.73461e-05
4.40145e-05
3.29234e-05
2.11146e-05
1.64376e-05
1.74201e-05
2.45645e-05
3.40778e-05
4.19146e-05
5.15415e-05
5.25069e-05
4.72086e-05
3.87263e-05
3.03393e-05
2.56183e-05
2.71223e-05
3.75872e-05
5.03587e-05
3.47665e-05
8.65969e-06
6.21863e-07
4.27755e-07
5.55617e-06
1.68213e-05
3.31401e-05
3.89494e-05
3.96664e-05
3.94768e-05
3.87981e-05
3.80866e-05
3.78509e-05
3.84996e-05
4.01047e-05
4.21177e-05
4.37683e-05
4.43939e-05
4.34048e-05
3.36458e-05
2.24982e-05
1.61789e-05
1.60059e-05
2.34631e-05
3.05581e-05
3.42985e-05
4.45559e-05
4.64834e-05
4.26212e-05
3.7715e-05
3.38149e-05
3.27901e-05
3.57182e-05
4.55865e-05
5.13673e-05
2.68521e-05
7.56855e-06
4.45509e-07
4.1432e-07
5.44631e-06
1.59572e-05
3.1868e-05
3.82096e-05
3.90895e-05
3.78653e-05
3.6455e-05
3.5689e-05
3.5852e-05
3.66637e-05
3.79354e-05
3.94927e-05
4.08739e-05
4.14934e-05
4.01092e-05
3.52458e-05
2.5536e-05
1.67361e-05
1.40591e-05
1.86692e-05
2.24117e-05
2.47717e-05
3.42796e-05
3.89436e-05
3.90737e-05
3.78903e-05
3.71309e-05
3.83176e-05
4.41668e-05
5.27375e-05
5.05874e-05
2.50811e-05
7.11753e-06
3.57596e-07
3.78067e-07
5.32328e-06
1.54644e-05
3.14323e-05
3.83008e-05
3.93488e-05
3.85445e-05
3.72943e-05
3.61851e-05
3.55401e-05
3.55407e-05
3.62077e-05
3.73427e-05
3.86984e-05
3.9902e-05
4.0386e-05
3.83585e-05
3.09099e-05
2.26961e-05
1.44744e-05
1.25684e-05
1.65987e-05
1.91515e-05
2.1659e-05
3.11576e-05
3.50727e-05
3.62631e-05
3.808e-05
4.19689e-05
4.88973e-05
5.50209e-05
5.08584e-05
2.5431e-05
7.19161e-06
3.42417e-07
3.43075e-07
5.11338e-06
1.45075e-05
3.02457e-05
3.81571e-05
3.94727e-05
3.84109e-05
3.69077e-05
3.57147e-05
3.50759e-05
3.50656e-05
3.56613e-05
3.67169e-05
3.80048e-05
3.92e-05
4.00782e-05
4.04102e-05
3.88507e-05
3.06816e-05
2.21533e-05
1.34998e-05
1.22672e-05
1.39594e-05
1.53175e-05
1.91187e-05
2.59093e-05
3.1291e-05
3.48122e-05
3.92672e-05
4.55447e-05
5.14579e-05
5.1044e-05
2.67439e-05
7.36124e-06
3.52322e-07
3.05912e-07
4.9018e-06
1.36105e-05
2.91196e-05
3.82642e-05
4.00074e-05
3.91027e-05
3.75105e-05
3.6265e-05
3.56657e-05
3.56416e-05
3.61805e-05
3.71089e-05
3.82999e-05
3.98828e-05
4.12166e-05
4.18183e-05
4.14981e-05
3.99984e-05
3.35497e-05
2.28283e-05
1.35542e-05
1.16538e-05
1.16105e-05
1.30035e-05
1.76764e-05
2.29314e-05
2.85686e-05
3.45577e-05
4.1358e-05
4.94962e-05
5.12903e-05
2.90722e-05
7.82916e-06
4.05388e-07
2.76531e-07
4.73206e-06
1.29717e-05
2.81e-05
3.82838e-05
4.02321e-05
3.92929e-05
3.78195e-05
3.65604e-05
3.57702e-05
3.56312e-05
3.60192e-05
3.70977e-05
3.8668e-05
4.01261e-05
4.14313e-05
4.23041e-05
4.22e-05
4.06927e-05
3.79096e-05
3.236e-05
2.3787e-05
1.5379e-05
1.15159e-05
1.0246e-05
1.16088e-05
1.54724e-05
1.9832e-05
2.51893e-05
3.23455e-05
4.12928e-05
4.79379e-05
3.2439e-05
8.39895e-06
4.79098e-07
2.51404e-07
4.51653e-06
1.23391e-05
2.77127e-05
3.82154e-05
4.03038e-05
3.94751e-05
3.8007e-05
3.66474e-05
3.59917e-05
3.59057e-05
3.65498e-05
3.77412e-05
3.90509e-05
4.05119e-05
4.20339e-05
4.30798e-05
4.3681e-05
4.31987e-05
4.01562e-05
3.44301e-05
2.70647e-05
1.9687e-05
1.43252e-05
1.1105e-05
1.07602e-05
1.17807e-05
1.3789e-05
1.75257e-05
2.35395e-05
3.21984e-05
4.10921e-05
3.45377e-05
8.75262e-06
5.39132e-07
2.45594e-07
4.4551e-06
1.20737e-05
2.70664e-05
3.81532e-05
4.04866e-05
3.97076e-05
3.83416e-05
3.72841e-05
3.67317e-05
3.69681e-05
3.76716e-05
3.87444e-05
4.01778e-05
4.17241e-05
4.29756e-05
4.3744e-05
4.37879e-05
4.25951e-05
3.95549e-05
3.40947e-05
2.68511e-05
2.1348e-05
1.72271e-05
1.38933e-05
1.29471e-05
1.15991e-05
1.09138e-05
1.28052e-05
1.6278e-05
2.25144e-05
3.43743e-05
3.67835e-05
9.1519e-06
6.28372e-07
2.4981e-07
4.38944e-06
1.20915e-05
2.73429e-05
3.82446e-05
4.04439e-05
3.97719e-05
3.85776e-05
3.78051e-05
3.75218e-05
3.78883e-05
3.89215e-05
4.01979e-05
4.15042e-05
4.29034e-05
4.42246e-05
4.50138e-05
4.4935e-05
4.34791e-05
3.97827e-05
3.25264e-05
2.43587e-05
1.96591e-05
1.76769e-05
1.64141e-05
1.86551e-05
1.69911e-05
1.28279e-05
1.18274e-05
1.26701e-05
1.61098e-05
2.57703e-05
4.06711e-05
1.03811e-05
7.91746e-07
2.69655e-07
4.47848e-06
1.24311e-05
2.77211e-05
3.81838e-05
4.05804e-05
4.02791e-05
3.93846e-05
3.87224e-05
3.85821e-05
3.90538e-05
4.00478e-05
4.15211e-05
4.33016e-05
4.50605e-05
4.64317e-05
4.71453e-05
4.68712e-05
4.46855e-05
3.86454e-05
2.70886e-05
1.94744e-05
1.67978e-05
1.63971e-05
2.1883e-05
2.94155e-05
2.67163e-05
2.01934e-05
1.37772e-05
1.15286e-05
1.29803e-05
1.9253e-05
3.81974e-05
1.05707e-05
9.18235e-07
3.0235e-07
4.59863e-06
1.29557e-05
2.86469e-05
3.82194e-05
4.04525e-05
4.04292e-05
3.98384e-05
3.94012e-05
3.94409e-05
4.01739e-05
4.15568e-05
4.33892e-05
4.54446e-05
4.74355e-05
4.90921e-05
5.01865e-05
5.00653e-05
4.65749e-05
3.5309e-05
2.2981e-05
1.68517e-05
1.59075e-05
1.83791e-05
2.69686e-05
3.62706e-05
3.50306e-05
3.1078e-05
2.03582e-05
1.24447e-05
1.18174e-05
2.0252e-05
4.43984e-05
1.00277e-05
9.2186e-07
3.33427e-07
4.78783e-06
1.31996e-05
2.82612e-05
3.78403e-05
4.036e-05
4.05501e-05
4.01357e-05
3.9852e-05
4.00474e-05
4.09254e-05
4.24131e-05
4.43804e-05
4.66288e-05
4.8854e-05
5.08009e-05
5.2264e-05
5.26008e-05
4.84128e-05
3.41683e-05
1.99979e-05
1.45277e-05
1.53965e-05
2.053e-05
2.70175e-05
3.17649e-05
3.23078e-05
2.7607e-05
2.04487e-05
1.57261e-05
1.78904e-05
3.13057e-05
3.66852e-05
8.86029e-06
7.32116e-07
3.43424e-07
4.9129e-06
1.37871e-05
2.89278e-05
3.79681e-05
4.03587e-05
4.04048e-05
3.98558e-05
3.95176e-05
3.97115e-05
4.05591e-05
4.19368e-05
4.37158e-05
4.56552e-05
4.75149e-05
4.90425e-05
4.99484e-05
4.94431e-05
4.41665e-05
3.11619e-05
1.84278e-05
1.34043e-05
1.56138e-05
1.90347e-05
2.16989e-05
2.75696e-05
2.92302e-05
2.63212e-05
2.22295e-05
2.09194e-05
2.73419e-05
4.33148e-05
2.70404e-05
7.65777e-06
4.84398e-07
3.37491e-07
4.8472e-06
1.35604e-05
2.89434e-05
3.7823e-05
3.99864e-05
3.98964e-05
3.91937e-05
3.86226e-05
3.85508e-05
3.91343e-05
4.02313e-05
4.16588e-05
4.31905e-05
4.45604e-05
4.55327e-05
4.58659e-05
4.5105e-05
4.17263e-05
3.30089e-05
2.09269e-05
1.26154e-05
1.19476e-05
1.40588e-05
1.64542e-05
2.05283e-05
2.37313e-05
2.48863e-05
2.48012e-05
2.70911e-05
3.66668e-05
4.66154e-05
2.59905e-05
7.36765e-06
4.13736e-07
3.19574e-07
4.76149e-06
1.31171e-05
2.82519e-05
3.75647e-05
3.96918e-05
3.93134e-05
3.84478e-05
3.79409e-05
3.79719e-05
3.86555e-05
3.98782e-05
4.12588e-05
4.26824e-05
4.39216e-05
4.47543e-05
4.49267e-05
4.39442e-05
4.08505e-05
3.41159e-05
2.4563e-05
1.66442e-05
1.10226e-05
1.08668e-05
1.25365e-05
1.48459e-05
1.95512e-05
2.26884e-05
2.47828e-05
2.89754e-05
3.82969e-05
4.68143e-05
2.66466e-05
7.31707e-06
4.15633e-07
3.07146e-07
4.70674e-06
1.2975e-05
2.8153e-05
3.74993e-05
3.96022e-05
3.90991e-05
3.81078e-05
3.74439e-05
3.75114e-05
3.82706e-05
3.96261e-05
4.11131e-05
4.2679e-05
4.40894e-05
4.49922e-05
4.51647e-05
4.42946e-05
4.15794e-05
3.58966e-05
2.72408e-05
1.9016e-05
1.39441e-05
1.12089e-05
1.00495e-05
1.14891e-05
1.4972e-05
1.8588e-05
2.22814e-05
2.7656e-05
3.76547e-05
4.71199e-05
2.77971e-05
7.60833e-06
4.63183e-07
2.88153e-07
4.56446e-06
1.24825e-05
2.75348e-05
3.7337e-05
3.93362e-05
3.90221e-05
3.80897e-05
3.72303e-05
3.72522e-05
3.80061e-05
3.91501e-05
4.08199e-05
4.25716e-05
4.4128e-05
4.53741e-05
4.5961e-05
4.51749e-05
4.20172e-05
3.57133e-05
2.79623e-05
2.10391e-05
1.56023e-05
1.23297e-05
1.0523e-05
1.05568e-05
1.23018e-05
1.50114e-05
1.87072e-05
2.439e-05
3.45057e-05
4.47115e-05
3.00904e-05
7.87046e-06
5.09832e-07
2.82264e-07
4.52623e-06
1.24691e-05
2.74649e-05
3.71824e-05
3.9165e-05
3.86329e-05
3.76389e-05
3.71487e-05
3.72016e-05
3.77466e-05
3.89833e-05
4.06622e-05
4.2421e-05
4.40237e-05
4.51832e-05
4.55642e-05
4.46447e-05
4.13671e-05
3.46905e-05
2.64213e-05
2.01931e-05
1.7415e-05
1.52037e-05
1.25428e-05
1.15819e-05
1.14116e-05
1.22955e-05
1.49887e-05
1.96119e-05
2.81364e-05
4.06128e-05
3.24974e-05
8.13324e-06
5.6698e-07
2.83533e-07
4.45834e-06
1.22958e-05
2.73514e-05
3.70254e-05
3.88377e-05
3.81938e-05
3.7223e-05
3.67043e-05
3.6897e-05
3.78447e-05
3.93287e-05
4.11842e-05
4.31864e-05
4.49515e-05
4.60919e-05
4.62487e-05
4.48198e-05
4.05083e-05
3.22775e-05
2.32504e-05
1.76109e-05
1.58515e-05
1.62974e-05
1.77428e-05
1.69502e-05
1.34343e-05
1.18017e-05
1.26045e-05
1.54938e-05
2.21335e-05
3.63226e-05
3.55382e-05
8.58783e-06
6.48704e-07
2.92704e-07
4.52192e-06
1.24697e-05
2.7474e-05
3.68953e-05
3.85884e-05
3.7984e-05
3.71123e-05
3.66811e-05
3.69432e-05
3.79296e-05
3.95381e-05
4.16113e-05
4.3855e-05
4.58046e-05
4.71641e-05
4.74292e-05
4.57636e-05
4.03394e-05
3.02208e-05
2.048e-05
1.52533e-05
1.42474e-05
1.65648e-05
2.26593e-05
2.5806e-05
1.9596e-05
1.42716e-05
1.23161e-05
1.3207e-05
1.843e-05
3.13846e-05
3.90429e-05
8.84958e-06
7.28246e-07
3.11063e-07
4.58557e-06
1.27274e-05
2.75672e-05
3.67142e-05
3.85363e-05
3.79877e-05
3.70894e-05
3.65986e-05
3.6852e-05
3.78686e-05
3.95e-05
4.15931e-05
4.3886e-05
4.62657e-05
4.79154e-05
4.84379e-05
4.71119e-05
4.15276e-05
2.96868e-05
1.92653e-05
1.40255e-05
1.34662e-05
1.65873e-05
2.44587e-05
3.1305e-05
2.73471e-05
1.94525e-05
1.35125e-05
1.28102e-05
1.63481e-05
2.85645e-05
3.80601e-05
8.53896e-06
7.40368e-07
3.16917e-07