/*--------------------------------*- C++ -*----------------------------------*\
| =========                 |                                                 |
| \\      /  F ield         | OpenFOAM: The Open Source CFD Toolbox           |
|  \\    /   O peration     | Version:  2.0.x                                 |
|   \\  /    A nd           | Web:      www.OpenFOAM.org                      |
|    \\/     M anipulation  |                                                 |
\*---------------------------------------------------------------------------*/
FoamFile
{
    version     2.0;
    format      ascii;
    class       volScalarField;
    location    "200";
    object      k;
}
// * * * * * * * * * * * * * * * * * * * * * * * * * * * * * * * * * * * * * //

dimensions      [0 2 -2 0 0 0 0];

internalField   nonuniform List<scalar> 
78750
(
4.86656e-06
4.52633e-05
7.46664e-05
0.000102921
0.00012924
0.000153465
0.000175028
0.000192282
0.0002078
0.000215429
0.000232835
0.000243114
0.000249808
0.000251994
0.000255182
0.000254661
0.000253583
0.000251963
0.000249747
0.00024721
0.000244426
0.000241621
0.000238776
0.000235878
0.000232892
0.000229812
0.000226599
0.000223229
0.000219602
0.000215638
0.000211135
0.000205941
0.000197145
0.000163008
4.25747e-05
2.32356e-06
4.81148e-05
0.000103148
0.000157653
0.000205073
0.000248321
0.000284096
0.000310902
0.000331646
0.000343702
0.000340552
0.000334762
0.000327638
0.000319606
0.000311277
0.000303279
0.000296071
0.000289871
0.000284893
0.00028024
0.000275429
0.000270308
0.000264638
0.000258731
0.000252701
0.000246661
0.00024057
0.000234672
0.000228937
0.000223323
0.000217441
0.000210351
0.000197501
0.000175417
0.000186762
1.98776e-05
0.000117695
0.000218662
0.000296532
0.000348639
0.000374321
0.000383606
0.000380154
0.000371999
0.000359051
0.000341862
0.000319475
0.000292572
0.000263654
0.000236386
0.000214523
0.00019908
0.000188537
0.000184513
0.000186174
0.000194621
0.00020632
0.000217404
0.000225193
0.000229512
0.000230877
0.000230395
0.000228414
0.000225165
0.000220965
0.000215769
0.000209423
0.000203978
0.000209691
0.000258813
5.87192e-05
0.000191588
0.000292534
0.000344489
0.000368618
0.000380638
0.000383792
0.000379994
0.000367584
0.000346493
0.000317381
0.000281228
0.000241277
0.000201999
0.000168825
0.000146581
0.000138588
0.000140657
0.000148
0.000158032
0.000169232
0.000180444
0.000190592
0.000198899
0.000205135
0.000209287
0.000211574
0.000212406
0.000212011
0.000210554
0.00020829
0.000206105
0.000207039
0.000217135
0.00024608
8.91206e-05
0.000218427
0.00031125
0.000364253
0.000393736
0.00040899
0.000411614
0.000402211
0.000381024
0.000351926
0.00031743
0.000279537
0.000239683
0.000201042
0.000167886
0.00014421
0.000131809
0.000129398
0.000133328
0.00014076
0.0001496
0.000158779
0.000167722
0.000176027
0.000183369
0.000189502
0.000194295
0.000197844
0.000200311
0.00020191
0.000203041
0.000204806
0.000209612
0.00022101
0.000243956
0.000102104
0.000236302
0.000329662
0.00037975
0.000406099
0.000419439
0.000422082
0.00041466
0.000398989
0.000376595
0.000348444
0.000315763
0.000279859
0.000242181
0.000204995
0.000171644
0.000146004
0.000130549
0.000123872
0.000123207
0.0001265
0.000132154
0.000139003
0.00014636
0.000154038
0.000161897
0.000169638
0.000176943
0.000183636
0.000189712
0.00019542
0.000201644
0.000210323
0.000222349
0.000245786
0.000105972
0.000241271
0.000338814
0.000393696
0.00042405
0.000440559
0.000445383
0.000439045
0.000422965
0.00040039
0.000373384
0.000343566
0.000312068
0.000279623
0.000246789
0.000214346
0.000183587
0.000157092
0.000137683
0.000125621
0.000119621
0.000117638
0.00011895
0.000123005
0.00012892
0.00013628
0.000144965
0.000154911
0.000165772
0.000176952
0.000188037
0.000199207
0.00021106
0.000226436
0.000256533
0.000110519
0.000251356
0.000351219
0.000406463
0.000436674
0.000453175
0.000458585
0.000453727
0.00043969
0.000418813
0.000393102
0.000364129
0.000333357
0.000301997
0.000270948
0.000240845
0.000212188
0.000185392
0.000161784
0.000142559
0.000127827
0.000118778
0.000113965
0.000112117
0.000113096
0.00011747
0.000124887
0.000135461
0.000149297
0.000165423
0.000181826
0.000197198
0.000213126
0.000233146
0.000273452
0.000112672
0.00025673
0.000361352
0.000420846
0.000454012
0.000472781
0.000480173
0.000477033
0.000464404
0.000444514
0.000420292
0.000393111
0.000364169
0.00033445
0.000304738
0.000275672
0.00024781
0.00022163
0.0001972
0.000174576
0.00015441
0.000137289
0.000123791
0.000114871
0.000110543
0.0001091
0.000110549
0.000116706
0.000127702
0.000144152
0.000165307
0.000190004
0.000214122
0.000242075
0.000293683
0.000115622
0.000264076
0.000371539
0.000432435
0.000466365
0.000485764
0.000493885
0.000491782
0.000480414
0.000461787
0.000438717
0.00041285
0.000385457
0.000357557
0.000329889
0.00030293
0.000276949
0.000252138
0.000228662
0.00020628
0.000184459
0.000163728
0.000145049
0.000128981
0.000116457
0.0001099
0.00010839
0.000110922
0.000120371
0.000137513
0.00016207
0.000189964
0.000218593
0.000250594
0.000298519
0.000116705
0.000269469
0.000381554
0.000446341
0.000482879
0.000504294
0.000514412
0.000514398
0.000505169
0.000488418
0.000466614
0.000442218
0.000416343
0.000389946
0.000363798
0.000338459
0.000314237
0.000291179
0.000269136
0.000247923
0.00022697
0.000205242
0.000182765
0.000160729
0.000140038
0.000122227
0.000111437
0.00011164
0.000119704
0.000137786
0.000162674
0.000193543
0.000222635
0.000252915
0.000305904
0.000117883
0.000274524
0.000389658
0.000456589
0.000494386
0.000516662
0.00052768
0.000528598
0.000520533
0.000505018
0.00048435
0.000461185
0.000436782
0.000412064
0.00038774
0.000364344
0.000342226
0.000321523
0.000302115
0.000283667
0.00026568
0.000247605
0.000228528
0.000207757
0.000186098
0.000164113
0.000143107
0.000126004
0.000121517
0.00013195
0.000156196
0.000189328
0.000223953
0.000265738
0.000351639
0.000121736
0.000281708
0.000400669
0.000470795
0.000510666
0.000534465
0.000546936
0.000549472
0.000543162
0.00052939
0.00051016
0.000487759
0.000464215
0.000440346
0.000416785
0.000394009
0.00037235
0.000351994
0.000332969
0.000315131
0.000298117
0.000281411
0.000264547
0.000246883
0.000227472
0.000207097
0.000187188
0.000167275
0.00015022
0.000142387
0.000154922
0.000190118
0.000229746
0.000285335
0.00038839
0.000122759
0.000285121
0.000407221
0.000479776
0.000521082
0.000545876
0.000559339
0.00056304
0.0005581
0.000545872
0.000528189
0.000507084
0.000484714
0.000462103
0.000439797
0.000418182
0.000397485
0.000377783
0.000359006
0.000340997
0.000323422
0.00030576
0.000287331
0.000267447
0.000245286
0.000221258
0.00019901
0.000179575
0.000162339
0.000152401
0.000158976
0.000195236
0.000243855
0.000301801
0.000385364
0.000123262
0.000290598
0.000417209
0.000492963
0.000536164
0.000562298
0.000577038
0.000582129
0.000578726
0.000568101
0.00055193
0.000532065
0.000510398
0.000488624
0.000467233
0.000446556
0.000426768
0.00040789
0.000389776
0.000372143
0.000354496
0.000336
0.000315415
0.0002912
0.00026228
0.000229488
0.000198401
0.00017757
0.000165976
0.000166159
0.000181638
0.000216421
0.000258708
0.000307147
0.000367361
0.000120783
0.000292713
0.000422932
0.000501192
0.000545872
0.000573041
0.000588777
0.000594984
0.00059294
0.000583931
0.000569547
0.000551506
0.000531495
0.000511163
0.000491333
0.00047227
0.000454096
0.000436802
0.00042025
0.000404222
0.000388319
0.000371813
0.000353453
0.00033125
0.000302691
0.000265737
0.00022304
0.000186619
0.000169358
0.000169184
0.000188392
0.000227751
0.000268814
0.000310721
0.000375012
0.000119461
0.000298008
0.00043282
0.000513947
0.000560304
0.000588637
0.000605406
0.00061265
0.000611756
0.000604075
0.000591035
0.000574303
0.000555436
0.000535837
0.00051689
0.00049886
0.000481816
0.000465699
0.000450338
0.000435539
0.000421023
0.000406383
0.000390936
0.000373439
0.000351926
0.000323466
0.000286704
0.000246151
0.000207056
0.000187246
0.000193805
0.000231223
0.000273679
0.00032677
0.000442821
0.000118743
0.000302411
0.00044042
0.000523261
0.000570614
0.000599655
0.000617042
0.000624881
0.000624639
0.000618071
0.000606202
0.00059084
0.000573481
0.000555366
0.000537542
0.00052077
0.00050507
0.000490321
0.000476295
0.000462759
0.000449419
0.000435881
0.000421598
0.000405609
0.000386003
0.000360016
0.000326642
0.000289449
0.000249996
0.000217443
0.000208914
0.000232467
0.00028387
0.000354678
0.00047338
0.000120323
0.000311024
0.000452722
0.000536982
0.000585217
0.000614931
0.000632815
0.000641018
0.000641068
0.000635257
0.000624018
0.000609427
0.00059298
0.000575856
0.000558941
0.000542965
0.000528234
0.00051458
0.000501741
0.000489496
0.000477602
0.000465469
0.000452719
0.000438796
0.000421977
0.000399086
0.000366581
0.000327407
0.000282214
0.00024206
0.000232065
0.000256936
0.000306498
0.000369047
0.00048035
0.000126859
0.000321044
0.000464113
0.000548308
0.000596693
0.000626536
0.000644369
0.000652388
0.000652319
0.00064637
0.000635254
0.000621142
0.000605536
0.000589583
0.00057405
0.000559337
0.0005457
0.000533146
0.000521333
0.000510178
0.00050023
0.000489083
0.000477165
0.00046482
0.000451175
0.000435152
0.000411855
0.000380393
0.000337464
0.000286298
0.000253818
0.000263387
0.000314631
0.000390765
0.000576605
0.000148952
0.000341823
0.000482396
0.000564676
0.000612306
0.000641652
0.000658828
0.00066606
0.000665421
0.000658274
0.000646475
0.000632029
0.00061645
0.000600879
0.000586061
0.000572252
0.000559309
0.000546894
0.000534666
0.000522562
0.000509995
0.000497144
0.000483643
0.00047219
0.000464858
0.000463923
0.000462766
0.000452317
0.000418687
0.000355576
0.000289028
0.000277525
0.000317945
0.000413286
0.000779884
0.000179237
0.000363363
0.000497792
0.000577312
0.000623708
0.000652125
0.00066829
0.000674428
0.000672646
0.000664324
0.00065154
0.000636559
0.000620857
0.000605561
0.000591342
0.000578189
0.000565611
0.000552907
0.000539478
0.000525238
0.000511156
0.000492565
0.000474091
0.000473797
0.000484527
0.000515715
0.000552916
0.000585526
0.000583491
0.000524817
0.000389985
0.000322512
0.000366907
0.00052825
0.000784885
0.000207995
0.000378925
0.000509315
0.00058785
0.000634125
0.000662287
0.000678084
0.000683803
0.000681524
0.000672854
0.000659722
0.000644179
0.000628374
0.000613622
0.000600278
0.000587965
0.00057571
0.000562273
0.000546685
0.000528906
0.000508922
0.000488397
0.000476074
0.000492305
0.000560937
0.000627596
0.000663369
0.000664723
0.000622558
0.000531305
0.000431634
0.000415217
0.000463694
0.000523987
0.000524534
0.000218337
0.00038206
0.000512985
0.000592999
0.000639464
0.000667606
0.000683299
0.000688638
0.000685965
0.000676871
0.000663499
0.000648161
0.000633149
0.00061988
0.000608579
0.000598611
0.000588598
0.000576628
0.000560658
0.000539029
0.000511818
0.000487576
0.000486356
0.000511587
0.000553147
0.000591264
0.000617024
0.000619752
0.000592555
0.000538594
0.000486286
0.00046821
0.000468155
0.000449627
0.000279314
0.000215481
0.000376224
0.000511612
0.000595433
0.000642914
0.000672055
0.000689042
0.000695592
0.000694658
0.000687395
0.000676054
0.000662875
0.000649796
0.000638176
0.000628767
0.000621682
0.000616219
0.000610648
0.00060217
0.000587311
0.000562353
0.000525849
0.000489203
0.000483035
0.000494412
0.000527341
0.000549722
0.000552197
0.000541793
0.000519451
0.000494074
0.000473775
0.000445355
0.000377886
0.000218816
0.000191427
0.000365886
0.000508054
0.000596354
0.000644097
0.000674478
0.00069307
0.000701563
0.000702082
0.000696368
0.000686343
0.000674202
0.000661889
0.000650847
0.000641941
0.000635558
0.000631713
0.000629872
0.000628797
0.000626329
0.000618562
0.000599222
0.000562209
0.000511725
0.000476404
0.000473641
0.000490718
0.000509625
0.00051754
0.000513992
0.000499146
0.000479143
0.000445377
0.00037807
0.000241645
0.000168178
0.000353763
0.000501335
0.000592748
0.000644529
0.00067743
0.000697872
0.000708245
0.00071023
0.000706158
0.000697907
0.000687498
0.00067673
0.000667227
0.000660035
0.000655603
0.000654122
0.000655011
0.000657647
0.000661464
0.0006652
0.000665954
0.000658503
0.000634573
0.000588746
0.000527901
0.000476669
0.000463968
0.000471009
0.000478679
0.000486228
0.000478028
0.000451377
0.000397276
0.00036843
0.000155574
0.000349634
0.000501188
0.000594088
0.000647983
0.000682317
0.000703618
0.000714546
0.000717188
0.000713777
0.000706292
0.000696653
0.000686668
0.000678436
0.000672939
0.000670645
0.00067163
0.000675507
0.00068175
0.000689667
0.000698252
0.00070551
0.000708559
0.000704606
0.000688637
0.000654259
0.000593711
0.000517571
0.000467903
0.000455515
0.000457016
0.000460416
0.000453144
0.000435869
0.000476306
0.000146755
0.000348624
0.000500069
0.000595114
0.000651788
0.000687273
0.000709109
0.000720352
0.00072365
0.000720477
0.000713274
0.000704437
0.000696081
0.000690022
0.000686907
0.000687442
0.000692441
0.000699206
0.000710685
0.000725734
0.000742747
0.000759668
0.00077268
0.000777244
0.000771012
0.000747153
0.00069956
0.00062498
0.000541291
0.000471514
0.000452743
0.000455065
0.000458171
0.000463544
0.00051727
0.000146071
0.000352406
0.000507797
0.00060392
0.000659975
0.000694592
0.000715214
0.000724826
0.000727227
0.000723822
0.000716523
0.000707945
0.000700034
0.000694219
0.000691965
0.000693957
0.000703174
0.000720355
0.000743049
0.000769948
0.000799089
0.000828222
0.000851352
0.000867303
0.000868985
0.000856655
0.00081185
0.000738279
0.000650335
0.000552608
0.000470151
0.00045477
0.000459791
0.000475998
0.000529121
0.000151391
0.000363278
0.000519865
0.000613746
0.000667918
0.000701013
0.000720183
0.000726723
0.000725205
0.000718698
0.000709685
0.000700142
0.000691704
0.000685868
0.000684199
0.000687526
0.000700642
0.000723251
0.000752758
0.000792486
0.000840338
0.00089417
0.000951283
0.000999635
0.00102102
0.00100918
0.000954103
0.000872877
0.000780939
0.000675368
0.000561058
0.000481107
0.000469887
0.000485212
0.000530735
0.000165948
0.00038244
0.000537416
0.000626504
0.000676915
0.000706955
0.000723435
0.00072838
0.000724126
0.000715176
0.000704046
0.000693088
0.000684253
0.000678957
0.000678211
0.000681691
0.000696066
0.00072061
0.000757609
0.000810123
0.000880306
0.000965768
0.00105799
0.00114396
0.00120463
0.00121104
0.00117697
0.00107988
0.000953643
0.000808119
0.000652777
0.000522547
0.000477739
0.000487218
0.000538572
0.000192047
0.000408173
0.000556815
0.000638973
0.000684914
0.000711271
0.000721492
0.000721682
0.000715974
0.000705
0.000692004
0.000679498
0.000669513
0.000663714
0.000663823
0.000668859
0.000685263
0.00071594
0.000761979
0.000832256
0.000932431
0.00106288
0.00120633
0.00134211
0.00144998
0.00150317
0.00149484
0.00142554
0.00127991
0.00107901
0.000852899
0.000639693
0.000516673
0.000508797
0.000583366
0.000228656
0.000438371
0.000575961
0.000649973
0.00069157
0.00071456
0.000721711
0.000719789
0.000709877
0.000695401
0.000679366
0.000664605
0.000653225
0.000646805
0.000647524
0.000656911
0.000678002
0.000716016
0.000776938
0.000877382
0.00102457
0.00121544
0.00142423
0.00160718
0.0017346
0.00180255
0.00180623
0.00175609
0.0016223
0.00142209
0.00116176
0.000867916
0.000643853
0.000563518
0.000602882
0.000273079
0.000464608
0.000589546
0.000656964
0.000695017
0.000715007
0.000721663
0.000717801
0.000701671
0.000683794
0.000665904
0.000650112
0.00063819
0.000631894
0.000633135
0.000644882
0.000671019
0.0007203
0.000806079
0.000951499
0.00116409
0.00141374
0.00164959
0.00182845
0.00195615
0.00203549
0.00205653
0.00201572
0.00188985
0.00167984
0.00138192
0.00103665
0.000781653
0.000652538
0.000595283
0.000317721
0.000482772
0.000594066
0.00065958
0.000695798
0.000712994
0.0007206
0.0007127
0.000697981
0.000677391
0.000657695
0.000640595
0.000627245
0.000619657
0.000620603
0.000632322
0.000660721
0.000717295
0.00082563
0.00100712
0.0012546
0.00151645
0.00175218
0.00194225
0.00208844
0.00218493
0.00221885
0.00217715
0.00203945
0.0017964
0.00145946
0.00110872
0.000856087
0.000682042
0.000503704
0.000341208
0.00048603
0.000594622
0.000658075
0.000696479
0.000714787
0.000717031
0.000709282
0.000692461
0.000673084
0.000653315
0.000635584
0.000623242
0.000614452
0.000611688
0.000620863
0.000647218
0.000705201
0.000821339
0.00101533
0.00126537
0.00152644
0.00175803
0.00194962
0.00209928
0.00219535
0.00222417
0.00217724
0.00203566
0.00178969
0.00146832
0.00115769
0.000904249
0.000681559
0.000409524
0.000343472
0.000480935
0.000591048
0.000655906
0.000692279
0.000709591
0.000712069
0.00070501
0.000691857
0.000673193
0.000653553
0.00063544
0.000620404
0.000610887
0.00060684
0.000608757
0.000623747
0.000660576
0.000744113
0.000909135
0.00115884
0.00143192
0.00168036
0.00189424
0.00205343
0.00214771
0.0021693
0.00211187
0.00196009
0.00172648
0.00144895
0.00117225
0.000914852
0.000656473
0.000339042
0.000330794
0.000469029
0.000582832
0.00064957
0.000686948
0.000706788
0.000710794
0.000705293
0.000689622
0.000670753
0.000651351
0.000634809
0.000619654
0.000609793
0.000605413
0.000604876
0.000607788
0.000620524
0.000656436
0.000749271
0.000933416
0.00118431
0.00143621
0.00168227
0.00186803
0.00198342
0.00202396
0.00199284
0.00187455
0.00168049
0.00144476
0.001202
0.000944008
0.000661206
0.000326008
0.000316301
0.000460577
0.000579127
0.00064742
0.000685368
0.000705325
0.000710075
0.000704773
0.000689459
0.000670869
0.000651435
0.000634537
0.000619161
0.000609066
0.000604406
0.000603699
0.000606207
0.000613397
0.000625937
0.000657552
0.0007464
0.000936097
0.00117255
0.00141655
0.00161101
0.00174779
0.00181998
0.00182346
0.00174901
0.0016045
0.00141475
0.00120401
0.000962233
0.000673377
0.000332386
0.000292128
0.000446274
0.000571215
0.000645101
0.000683014
0.000703432
0.000710431
0.000704736
0.000690276
0.000672426
0.000653069
0.000634817
0.000620807
0.000610079
0.000604415
0.000603703
0.000607117
0.000614041
0.000624862
0.000641539
0.000668721
0.00073258
0.000908343
0.00113556
0.0013581
0.00152358
0.00162225
0.0016608
0.00163208
0.00153335
0.00138366
0.00120362
0.000985493
0.000704642
0.000367085
0.000272336
0.000438753
0.000568324
0.000643535
0.000681868
0.000702666
0.000710202
0.000704384
0.000691576
0.000674952
0.000656038
0.000637637
0.000621747
0.000610116
0.000603731
0.000602282
0.000605529
0.000612438
0.000623802
0.000638433
0.000658047
0.00068585
0.000735517
0.000876001
0.00108499
0.00127837
0.00141482
0.00148854
0.00149562
0.00144329
0.00133593
0.00119278
0.00100626
0.000742059
0.000413502
0.000254598
0.000432453
0.000567073
0.000640444
0.000681433
0.000702723
0.000708866
0.000704846
0.000692631
0.000677077
0.00065842
0.000640101
0.000624461
0.000612994
0.00060656
0.000605827
0.00061063
0.000620511
0.000636851
0.000656588
0.000675617
0.000691752
0.000715057
0.000769772
0.000907381
0.00109091
0.00124997
0.00134764
0.00137703
0.00135042
0.00127085
0.00116002
0.00101074
0.000772071
0.000451416
0.000241253
0.00043185
0.000565842
0.000641224
0.000681391
0.000702583
0.000708855
0.00070608
0.000693362
0.000672595
0.000652792
0.000633528
0.000617712
0.000606581
0.000601225
0.000602121
0.000610625
0.000624109
0.000647545
0.000680355
0.000719807
0.000753081
0.000762841
0.000756053
0.0007875
0.000899234
0.001064
0.00121185
0.00128594
0.00128153
0.00122597
0.00113314
0.00101018
0.000801722
0.000504305
0.000241096
0.000435512
0.000570046
0.000641808
0.000681752
0.000702822
0.000708945
0.000702498
0.000688674
0.000671512
0.000651986
0.000632996
0.000616716
0.000605059
0.000599407
0.000600858
0.000611828
0.000628883
0.000657067
0.000697108
0.00074935
0.00080931
0.000861746
0.000880622
0.000870667
0.000880945
0.000928849
0.00102845
0.00114484
0.00120443
0.00119066
0.00112037
0.00101532
0.000835525
0.00058314
0.000262816
0.000457025
0.000584508
0.00065062
0.000685277
0.000704672
0.000709038
0.000701081
0.000685971
0.000665246
0.000642514
0.000621024
0.00060354
0.000592312
0.000589339
0.00059484
0.000612579
0.000639098
0.000681983
0.000741421
0.000815363
0.000895999
0.000976603
0.00103528
0.00105035
0.00102024
0.000985498
0.00101786
0.00106199
0.00111128
0.00112658
0.00109295
0.00101188
0.000866843
0.000669611
0.000282859
0.000467096
0.000588149
0.000651694
0.000686278
0.000705071
0.000708572
0.000698512
0.000681303
0.000659491
0.000636111
0.000614199
0.000596649
0.000586176
0.000585249
0.000594313
0.000619878
0.000663052
0.000727824
0.00081144
0.000907535
0.00101043
0.00111274
0.00119938
0.0012528
0.00125751
0.00120254
0.00110444
0.00107314
0.00109742
0.00109447
0.00106193
0.00100379
0.000895969
0.000709147
0.000319067
0.000484726
0.000592557
0.000654114
0.0006882
0.000705739
0.000708492
0.000697373
0.00067804
0.000653936
0.000628248
0.000604073
0.000585041
0.000574879
0.000576652
0.000593573
0.000631325
0.000695807
0.000787857
0.000896013
0.00100766
0.00112111
0.00123743
0.00134944
0.00143442
0.00146948
0.00143538
0.00132957
0.00120606
0.00112494
0.00110069
0.00105997
0.000997276
0.000893943
0.000706481
0.000355169
0.000487143
0.000588168
0.000647885
0.000681769
0.000699116
0.000702429
0.000693685
0.00067636
0.000651837
0.000627642
0.000603785
0.000582378
0.000571201
0.000572665
0.000592003
0.000637722
0.000713772
0.000827049
0.000961803
0.00108777
0.00121316
0.00135025
0.00147662
0.00156334
0.00159628
0.0015694
0.0014708
0.00132732
0.00119961
0.00112015
0.0010603
0.000991001
0.000869596
0.000597327
0.00036203
0.000482008
0.000585648
0.00064739
0.000681397
0.000698398
0.000701895
0.000692898
0.000675408
0.000650981
0.000623982
0.000599353
0.000578964
0.000563354
0.000557829
0.00057092
0.000614012
0.000700941
0.000838615
0.000989678
0.00112749
0.00125547
0.00137994
0.00148229
0.00155613
0.00157696
0.00154836
0.0014589
0.00133834
0.00122702
0.00113385
0.00104968
0.000946721
0.000768137
0.000427732
0.000350629
0.000466357
0.000574623
0.000639688
0.000676377
0.000695971
0.000700845
0.000693852
0.000675357
0.000652577
0.000627112
0.000601961
0.0005807
0.000563509
0.000551615
0.0005466
0.000554471
0.000597364
0.000699449
0.000860595
0.00102903
0.00116498
0.00128827
0.00138009
0.00143739
0.00146183
0.00145476
0.00139904
0.00131542
0.00121715
0.00112261
0.00102333
0.00089676
0.000684747
0.000343201
0.00031986
0.000448219
0.000564691
0.000633484
0.000671826
0.00069302
0.000699956
0.000695075
0.000681794
0.000661943
0.000638366
0.000613674
0.000589888
0.000569131
0.000553412
0.000544171
0.000540561
0.000543996
0.000570802
0.000658548
0.000831883
0.000999206
0.0011334
0.00123835
0.00130152
0.00133704
0.00134994
0.00133377
0.00128242
0.00120872
0.00111942
0.00101056
0.000863977
0.00064758
0.000328587
0.000290175
0.000431265
0.000553687
0.000626032
0.00066657
0.000689645
0.000698483
0.000696871
0.000685767
0.000668008
0.000646367
0.000623568
0.000601616
0.00058165
0.00056427
0.000550469
0.000542394
0.000541016
0.000546034
0.000560364
0.000601123
0.000736101
0.000898116
0.00104773
0.00115579
0.00121635
0.0012418
0.00123856
0.00120518
0.00114799
0.00107341
0.000982325
0.00085636
0.000646035
0.000338089
0.000258666
0.000414493
0.0005438
0.000619741
0.00066194
0.000686294
0.000697302
0.000697855
0.000689473
0.000674197
0.000654499
0.000633093
0.000612045
0.000592745
0.000575927
0.000561893
0.000550781
0.00054299
0.000540816
0.000543012
0.000548164
0.000568259
0.000646341
0.00080086
0.000963985
0.00108221
0.00115011
0.00117504
0.00116534
0.00112379
0.00105942
0.000976378
0.000858645
0.000662501
0.000389049
0.00023377
0.000403743
0.000537305
0.000615318
0.000658709
0.000683797
0.00069667
0.000699022
0.000692711
0.000679307
0.000660862
0.000640955
0.00062121
0.000602825
0.000586391
0.000572575
0.000561906
0.000554473
0.000549551
0.000548175
0.000551214
0.000558874
0.000575219
0.000609408
0.000723225
0.000882881
0.00100673
0.00107759
0.00109733
0.00108306
0.00103518
0.000965434
0.000866548
0.000697573
0.000459771
0.000212484
0.000395802
0.00053127
0.000610535
0.000654935
0.000680819
0.000694837
0.000699799
0.000694706
0.000682415
0.000665659
0.000647042
0.000628779
0.000611935
0.000596207
0.000582525
0.000571459
0.000564669
0.000561834
0.000562203
0.000564877
0.0005687
0.000573143
0.000582332
0.000609614
0.000693981
0.000830208
0.000961684
0.00103976
0.00104888
0.00102117
0.000964844
0.00087483
0.000727792
0.000517537
0.000207561
0.0003948
0.000530472
0.000610531
0.000655234
0.000680332
0.000693964
0.000698441
0.000693308
0.000681524
0.000667871
0.000650112
0.000632224
0.000615536
0.000600246
0.000587462
0.000577809
0.000572324
0.000570955
0.000573887
0.000582154
0.000595823
0.000614302
0.000624615
0.000615744
0.00060603
0.000646212
0.000760689
0.000901868
0.000999401
0.00101184
0.000968914
0.000884982
0.000757462
0.000603359
0.00021113
0.000397436
0.000530255
0.000608608
0.000654539
0.000679738
0.000693484
0.000696755
0.000692907
0.000681065
0.000665964
0.000651165
0.000633756
0.000614981
0.000599632
0.000588941
0.000581107
0.000576738
0.000577072
0.000583234
0.000598897
0.000629005
0.000675681
0.000733984
0.000764024
0.000742578
0.000680326
0.000688846
0.000749634
0.000853834
0.000939913
0.000954191
0.000911534
0.000813537
0.000760286
0.000227934
0.000409124
0.000536278
0.000610279
0.00065457
0.00067932
0.00069206
0.000694039
0.000688274
0.000676329
0.000660495
0.000642087
0.000623744
0.000607195
0.000592598
0.000580306
0.00057133
0.000566867
0.000567974
0.000577853
0.000600056
0.000644935
0.000725228
0.00083009
0.000924545
0.00097168
0.000956297
0.000848799
0.000760814
0.000786729
0.000862957
0.000910411
0.000909729
0.000864195
0.00088226
0.000255639
0.000421618
0.000539656
0.000611856
0.00065487
0.000678693
0.000690416
0.000691481
0.000684671
0.000671318
0.000654557
0.000636308
0.000617713
0.000599967
0.000584306
0.000571758
0.000563189
0.000559539
0.000561807
0.000574828
0.000608212
0.000684012
0.000813544
0.000969889
0.00110984
0.00120871
0.00124765
0.00121534
0.00107551
0.000895009
0.0008721
0.000910317
0.000913437
0.000898948
0.000885886
0.000281978
0.000427157
0.000540726
0.000608922
0.00065048
0.000675297
0.000686834
0.000687379
0.000679695
0.000665797
0.000648447
0.000629501
0.000610693
0.000593201
0.000577873
0.000565321
0.000556306
0.000552001
0.000554068
0.000568131
0.000610098
0.000701545
0.000859956
0.00105164
0.00122708
0.00134807
0.00139455
0.00135143
0.0012096
0.00101685
0.000920526
0.000918603
0.000918828
0.000889874
0.000703421
0.000290462
0.000431109
0.000542296
0.000609435
0.00064984
0.000673465
0.000684213
0.000684435
0.000676129
0.000662288
0.000645845
0.000627008
0.000608089
0.000590596
0.000575337
0.000562897
0.000553775
0.000549184
0.000550622
0.000565708
0.000608528
0.000708857
0.000871538
0.00106168
0.00123029
0.00134277
0.00137299
0.00132319
0.00119178
0.00103827
0.000955831
0.000930125
0.000896361
0.000781878
0.000465093
0.000285437
0.00042157
0.000534567
0.000604114
0.000644808
0.000668655
0.000679783
0.00068059
0.000673289
0.000660476
0.000644519
0.000626074
0.000607331
0.000589812
0.000574382
0.000561726
0.000552387
0.000547327
0.000545517
0.000545934
0.00055482
0.000591189
0.000709659
0.000887638
0.00107218
0.00120263
0.00124846
0.00123905
0.00116273
0.00106328
0.000986214
0.000925859
0.000855438
0.000706604
0.000397137
0.000270249
0.000412233
0.000528325
0.000599423
0.000641065
0.000665633
0.000677622
0.00067894
0.000671807
0.000658719
0.000642673
0.000626255
0.00060804
0.000590633
0.000575168
0.000562406
0.000552749
0.000546032
0.000544077
0.000546462
0.000553951
0.000569354
0.000599563
0.000703549
0.000867086
0.00102233
0.00111231
0.00113894
0.00111453
0.00105499
0.000988005
0.00092338
0.000839444
0.000683298
0.000398959
0.000259716
0.000408313
0.000525903
0.000596451
0.000637548
0.000661882
0.000673917
0.000675752
0.000669574
0.000657666
0.000642278
0.00062607
0.000607949
0.000590575
0.000575147
0.000562423
0.000552966
0.000547159
0.000545421
0.000547818
0.000554249
0.000564558
0.000582188
0.00061426
0.000700842
0.000849322
0.000973078
0.00104105
0.00105475
0.00102884
0.000978249
0.000918083
0.000838068
0.000684476
0.000444652
0.00024362
0.000400832
0.000521683
0.000592289
0.000634012
0.000658929
0.000671436
0.000673572
0.000667604
0.000655786
0.000640073
0.000621928
0.000603531
0.000586236
0.000570941
0.000558343
0.000549154
0.000544091
0.000544008
0.000550521
0.000563873
0.00058309
0.000595186
0.000604371
0.000634466
0.000725837
0.000851169
0.000951504
0.000997913
0.000994813
0.000963674
0.00091272
0.000837707
0.000698106
0.000489469
0.000238627
0.000400559
0.00051995
0.000590234
0.000631545
0.000655965
0.000667997
0.000669774
0.000663994
0.00065271
0.000637665
0.000620242
0.00060218
0.000585075
0.000569962
0.000557496
0.000548377
0.000543323
0.000543344
0.000550053
0.000569254
0.000601295
0.000643678
0.000658274
0.000637979
0.000653665
0.000728204
0.000839413
0.000932933
0.000968146
0.000954918
0.000910297
0.000840913
0.000717361
0.000544488
0.000239702
0.000399407
0.000519627
0.000588657
0.000629525
0.000653527
0.000665011
0.000666102
0.000659823
0.00064816
0.000632708
0.000614501
0.000595689
0.000577823
0.000561911
0.00054858
0.000538384
0.000532052
0.000530719
0.000535954
0.000555664
0.000599178
0.000667196
0.000731092
0.000746074
0.000721681
0.000712082
0.000751269
0.000832159
0.000907149
0.000933055
0.000911195
0.000852743
0.000748822
0.000623049
0.000247472
0.000405205
0.00052057
0.000587842
0.000627223
0.000649953
0.000660304
0.000660442
0.000653132
0.000640858
0.000625096
0.000606936
0.000588353
0.000570783
0.000555119
0.000541895
0.000531577
0.00052474
0.000522641
0.00052744
0.000547926
0.000597043
0.000685613
0.000789816
0.000862212
0.000877036
0.000835628
0.000783297
0.000800404
0.000854593
0.00089303
0.000892595
0.000856231
0.000780263
0.000699627
0.000263035
0.000408435
0.000519913
0.000586331
0.000624963
0.0006469
0.000656379
0.000655681
0.000646996
0.000633595
0.000617266
0.000598894
0.000580272
0.00056276
0.000547242
0.000534287
0.000524172
0.000517762
0.000515133
0.000518235
0.000537716
0.000590826
0.000690268
0.000821911
0.000943534
0.00101953
0.00103265
0.000983851
0.000880967
0.000862083
0.000885165
0.000890771
0.000862956
0.000807336
0.000711336
0.000268001
0.000408955
0.000519519
0.00058455
0.00062152
0.000642049
0.000650339
0.000648541
0.000638872
0.000624133
0.000607429
0.000589592
0.000572055
0.000555836
0.0005417
0.000530397
0.000523353
0.000516917
0.000513428
0.000517261
0.000535808
0.000589958
0.000694984
0.000834844