/*--------------------------------*- C++ -*----------------------------------*\
| =========                 |                                                 |
| \\      /  F ield         | OpenFOAM: The Open Source CFD Toolbox           |
|  \\    /   O peration     | Version:  2.0.x                                 |
|   \\  /    A nd           | Web:      www.OpenFOAM.org                      |
|    \\/     M anipulation  |                                                 |
\*---------------------------------------------------------------------------*/
FoamFile
{
    version     2.0;
    format      ascii;
    class       volScalarField;
    location    "200";
    object      omega;
}
// * * * * * * * * * * * * * * * * * * * * * * * * * * * * * * * * * * * * * //

dimensions      [0 0 -1 0 0 0 0];

internalField   nonuniform List<scalar> 
78750
(
1023.08
4.37353
4.59162
4.79216
4.97177
5.13372
5.27064
5.37581
5.46976
5.51781
5.62111
5.68141
5.72037
5.73331
5.75183
5.74918
5.7435
5.73435
5.72176
5.70706
5.69089
5.67454
5.65793
5.64096
5.62346
5.60536
5.58642
5.56647
5.54491
5.52121
5.49429
5.46341
5.41418
5.23223
1092.95
1023.06
4.39727
4.79572
5.15965
5.45461
5.73456
5.94643
6.0884
6.18406
6.2447
6.22845
6.19836
6.16125
6.11912
6.07517
6.03261
5.99393
5.96056
5.93334
5.90758
5.88047
5.85119
5.81822
5.78367
5.74813
5.71217
5.67555
5.63984
5.60489
5.57038
5.53392
5.49162
5.42374
5.31644
1094.05
1023.21
4.89531
5.53717
5.98531
6.26639
6.37168
6.40501
6.41042
6.38013
6.32312
6.23709
6.12321
5.97865
5.81635
5.65959
5.53149
5.43845
5.3757
5.35329
5.365
5.41877
5.48872
5.55225
5.5949
5.61751
5.62298
5.61804
5.60438
5.58342
5.55735
5.52666
5.4929
5.47369
5.54632
1094.61
1023.53
5.37039
5.96012
6.24265
6.37073
6.43675
6.45583
6.43685
6.37196
6.26211
6.10605
5.89884
5.67137
5.44402
5.24542
5.11045
5.06413
5.08014
5.12798
5.19144
5.26064
5.32837
5.38841
5.43655
5.4719
5.49477
5.50662
5.51004
5.5066
5.49809
5.48756
5.48376
5.50958
5.60638
1094.51
1023.78
5.53222
6.06329
6.34723
6.50039
6.57867
6.59289
6.54685
6.44049
6.29103
6.10924
5.90467
5.67812
5.44913
5.24518
5.09639
5.01782
5.00311
5.02924
5.07674
5.13214
5.18872
5.24308
5.29298
5.33669
5.37296
5.40119
5.4222
5.43773
5.44974
5.46244
5.48584
5.53789
5.6417
1094.5
1023.89
5.63792
6.16233
6.42671
6.56216
6.63039
6.64487
6.60902
6.53131
6.41784
6.27197
6.09814
5.90144
5.68796
5.46972
5.26714
5.10706
5.00901
4.96578
4.96116
4.98216
5.01801
5.0611
5.10683
5.15403
5.20213
5.24958
5.29489
5.33748
5.37845
5.42129
5.47404
5.54814
5.6579
1094.52
1023.92
5.66696
6.21131
6.498
6.65182
6.73459
6.75941
6.72959
6.65155
6.54009
6.40372
6.24938
6.08186
5.9042
5.71878
5.52967
5.34455
5.18004
5.05714
4.97942
4.93981
4.92607
4.93388
4.95969
4.99741
5.04421
5.09929
5.1625
5.23233
5.30638
5.38374
5.46782
5.56329
5.68814
1094.61
1023.96
5.7245
6.27602
6.56178
6.71349
6.79557
6.82314
6.80084
6.73362
6.63196
6.50418
6.35694
6.1967
6.02902
5.85831
5.68794
5.52094
5.36014
5.21436
5.09235
4.99682
4.93723
4.90441
4.89107
4.89644
4.92421
4.97177
5.03956
5.1282
5.23261
5.34224
5.45269
5.57546
5.72931
1094.74
1023.98
5.75533
6.32921
6.63384
6.79826
6.89014
6.92675
6.913
6.85369
6.75869
6.64079
6.50573
6.35868
6.20407
6.04559
5.88646
5.72983
5.57869
5.43383
5.29599
5.16974
5.05956
4.97124
4.91171
4.88217
4.8719
4.88105
4.9217
4.99458
5.10456
5.24789
5.41744
5.58334
5.78507
1094.89
1024
5.79709
6.38186
6.69096
6.85764
6.9517
6.99139
6.98256
6.9297
6.84159
6.73086
6.60426
6.46746
6.32515
6.18092
6.03721
5.89549
5.75691
5.62256
5.49122
5.35974
5.23125
5.11208
5.00686
4.92338
4.88002
4.87122
4.89073
4.95904
5.07879
5.24468
5.4336
5.62731
5.83741
1094.92
1024.01
5.82805
6.43376
6.75946
6.93687
7.03928
7.08773
7.08872
7.04664
6.96885
6.86622
6.74936
6.62308
6.49177
6.35918
6.22823
6.10067
5.97696
5.85643
5.73812
5.6189
5.49249
5.358
5.22185
5.0895
4.97117
4.89689
4.89822
4.95323
5.07781
5.24814
5.45236
5.64736
5.85166
1095
1024.02
5.85652
6.47501
6.80914
6.99123
7.09681
7.14897
7.1542
7.11787
7.04653
6.95017
6.84062
6.72321
6.60217
6.48097
6.36236
6.24834
6.13991
6.03672
5.9372
5.83878
5.73856
5.63151
5.51222
5.38422
5.2518
5.12046
5.00697
4.97209
5.03797
5.20103
5.4263
5.65573
5.93184
1095.38
1024.06
5.89735
6.53139
6.878
7.06787
7.17922
7.23733
7.24975
7.2217
7.15917
7.07077
6.96652
6.8552
6.74048
6.62535
6.51224
6.40295
6.29859
6.1995
6.10514
6.01373
5.92254
5.82895
5.7294
5.61825
5.49985
5.38234
5.26262
5.15688
5.10669
5.19001
5.4245
5.69196
6.03854
1095.62
1024.07
5.91605
6.56414
6.92067
7.11603
7.23121
7.29343
7.31108
7.28952
7.23468
7.15434
7.05726
6.95313
6.8462
6.73909
6.63374
6.5314
6.43256
6.33695
6.24374
6.15114
6.05617
5.95477
5.8426
5.71432
5.57172
5.43742
5.32207
5.22539
5.17897
5.24092
5.48264
5.78669
6.12844
1095.58
1024.07
5.94624
6.6139
6.98302
7.18542
7.30556
7.37287
7.39651
7.38209
7.33513
7.26275
7.17283
7.07365
6.97258
6.87193
6.77335
6.67783
6.58561
6.49608
6.40787
6.31836
6.22293
6.11438
5.98307
5.82086
5.62971
5.44155
5.31607
5.25275
5.26878
5.38588
5.61185
5.87063
6.15418
1095.46
1024.05
5.95819
6.64237
7.02162
7.22962
7.35364
7.4249
7.45329
7.44502
7.40567
7.342
7.26124
7.17069
7.07777
6.986
6.89673
6.81068
6.72794
6.648
6.56991
6.49184
6.41025
6.31882
6.20689
6.05956
5.86124
5.61856
5.39206
5.26368
5.27826
5.40883
5.66856
5.92423
6.18007
1095.57
1024.05
5.98857
6.69172
7.08133
7.29508
7.42312
7.49819
7.53077
7.52756
7.49428
7.43715
7.36314
7.27885
7.19041
7.10405
7.02097
6.94167
6.86596
6.79316
6.72243
6.65246
6.58132
6.5057
6.41945
6.31251
6.16897
5.97898
5.76258
5.54809
5.41513
5.4538
5.68088
5.94461
6.27004
1096.1
1024.04
6.01366
6.72935
7.12446
7.34126
7.47156
7.5488
7.58375
7.58354
7.55495
7.50337
7.43601
7.35918
7.27826
7.198
7.12177
7.04979
6.9816
6.91623
6.85264
6.78949
6.72492
6.65627
6.57869
6.482
6.3511
6.1789
5.98233
5.76856
5.58559
5.54271
5.69597
6.01311
6.42066
1096.31
1024.06
6.06234
6.78993
7.18766
7.40631
7.53833
7.61697
7.65314
7.65426
7.62903
7.58062
7.51728
7.44527
7.36967
7.29436
7.22276
7.15618
7.094
7.03508
6.97846
6.92307
6.86627
6.80641
6.74112
6.66033
6.54885
6.38698
6.18679
5.94794
5.73058
5.68569
5.84253
6.1348
6.48591
1096.36
1024.12
6.11815
6.84488
7.23897
7.45672
7.58838
7.66622
7.70129
7.70192
7.67627
7.62878
7.56794
7.50012
7.43028
7.36177
7.29642
7.23545
7.17893
7.12531
7.07419
7.02806
6.97612
6.91923
6.85835
6.79213
6.71654
6.60644
6.45535
6.2424
5.96974
5.78991
5.86447
6.16932
6.60065
1097.2
1024.31
6.22908
6.9318
7.31274
7.52514
7.65349
7.72785
7.7592
7.75697
7.72693
7.67671
7.61471
7.54736
7.47965
7.41486
7.35413
7.29683
7.2414
7.18617
7.1307
7.07276
7.01433
6.94695
6.88513
6.84584
6.84872
6.84522
6.80812
6.65299
6.36102
6.02264
5.94846
6.22908
6.72575
1098.62
1024.56
6.33736
7.00177
7.36792
7.57389
7.69772
7.76763
7.79448
7.78759
7.75266
7.6985
7.63452
7.5669
7.5007
7.43891
7.38152
7.32625
7.26975
7.20893
7.14267
7.07135
6.98635
6.90478
6.88318
6.93174
7.08744
7.27803
7.44066
7.42985
7.1367
6.49205
6.21102
6.45683
7.25594
1098.6
1024.78
6.41188
7.0532
7.4137
7.61827
7.74052
7.80882
7.83416
7.82557
7.78974
7.73466
7.66894
7.60151
7.53802
7.48047
7.42747
7.37471
7.31627
7.24686
7.16532
7.07261
6.96063
6.89882
6.96342
7.2548
7.54794
7.70293
7.71275
7.54291
7.1592
6.73996
6.69695
6.94777
7.25879
1096.45
1024.85
6.42753
7.0702
7.43603
7.64102
7.76315
7.83124
7.85527
7.84553
7.80845
7.75263
7.68766
7.62377
7.56681
7.51825
7.47595
7.43411
7.384
7.31543
7.21895
7.09087
6.96681
6.94185
7.03529
7.21229
7.37861
7.48269
7.50469
7.41384
7.22644
7.02423
6.95085
6.94749
6.81309
1094.73
1024.82
6.3912
7.06078
7.44551
7.65551
7.782
7.85534
7.88432
7.8818
7.85249
7.80564
7.75045
7.69493
7.64511
7.60457
7.57436
7.55225
7.53165
7.50086
7.44412
7.34242
7.17986
6.98892
6.9347
6.96689
7.10829
7.22303
7.24742
7.22506
7.1514
7.05009
6.97316
6.84984
6.53891
1094.36
1024.62
6.34182
7.04628
7.44882
7.66076
7.79272
7.87282
7.90976
7.91332
7.89065
7.84949
7.79892
7.74722
7.70051
7.6626
7.63536
7.61908
7.61206
7.60952
7.60355
7.5788
7.50841
7.3611
7.13049
6.92736
6.88829
6.94509
7.04519
7.10295
7.11273
7.06558
6.99423
6.85976
6.53119
1094.59
1024.45
6.27972
7.01733
7.43981
7.66344
7.8051
7.89273
7.93766
7.94748
7.9319
7.89848
7.85545
7.81025
7.76978
7.73876
7.71961
7.71324
7.71749
7.72976
7.74771
7.76679
7.77616
7.75755
7.67709
7.50199
7.23368
6.96138
6.85185
6.87437
6.91543
6.97476
6.96075
6.86415
6.64577
1095.6
1024.35
6.2622
7.01213
7.43813
7.67919
7.82722
7.91782
7.96427
7.97606
7.96336
7.93391
7.89418
7.85097
7.81571
7.79231
7.78294
7.78808
7.80609
7.83424
7.8697
7.90823
7.94174
7.95814
7.9459
7.88647
7.75422
7.50853
7.16638
6.90262
6.82666
6.83816
6.86879
6.86337
6.82244
1096.37
1024.29
6.25773
7.0156
7.44887
7.6967
7.84835
7.9405
7.9877
8.00116
7.98805
7.9586
7.92176
7.88623
7.86138
7.84912
7.85236
7.87475
7.90482
7.95314
8.01666
8.08866
8.16108
8.21886
8.24382
8.22523
8.13757
7.95146
7.64298
7.27024
6.92785
6.82358
6.84339
6.88542
6.94379
1096.64
1024.29
6.28081
7.05087
7.48756
7.7314
7.87865
7.96537
8.00581
8.01599
8.00144
7.96931
7.93333
7.90214
7.87933
7.87073
7.87962
7.91861
7.99004
8.08506
8.1971
8.31795
8.43871
8.53593
8.60125
8.61433
8.57244
8.40503
8.11792
7.75853
7.33189
6.9326
6.8419
6.89671
6.99019
1096.71
1024.34
6.33924
7.10839
7.53214
7.76652
7.90657
7.98669
8.0142
8.00883
7.98311
7.94698
7.90773
7.87201
7.84662
7.83857
7.85214
7.90689
8.00121
8.12276
8.28419
8.47501
8.68588
8.90663
9.0943
9.18627
9.15309
8.95503
8.65238
8.29623
7.86686
7.36749
6.9881
6.93348
7.02959
1096.72
1024.46
6.43968
7.18944
7.58724
7.80402
7.93087
8.0002
8.02126
8.00381
7.96659
7.91992
7.87373
7.83639
7.81403
7.81102
7.82606
7.88681
7.98817
8.14032
8.35233
8.62761
8.95209
9.29135
9.60052
9.82017
9.86177
9.76131
9.44206
8.98645
8.42738
7.78273
7.18505
6.96761
7.03768
1096.81
1024.68
6.57156
7.2781
7.64126
7.83756
7.94833
7.99242
7.99448
7.97057
7.92558
7.87152
7.81891
7.77657
7.75184
7.75227
7.77384
7.84393
7.97835
8.16342
8.44255
8.82711
9.30522
9.80591
10.2619
10.6161
10.7959
10.783
10.5881
10.1466
9.48632
8.65901
7.78292
7.2009
7.15984
1097.21
1024.99
6.7208
7.36305
7.68708
7.86333
7.96002
7.99188
7.98574
7.94554
7.88503
7.81772
7.75497
7.70616
7.67847
7.68194
7.72204
7.81275
7.96924
8.22348
8.62273
9.17287
9.84118
10.5237
11.0897
11.4708
11.6744
11.697
11.5649
11.1898
10.5954
9.75989
8.70641
7.79349
7.43825
1097.36
1025.36
6.84644
7.42195
7.71492
7.87412
7.94859
7.97358
7.95509
7.9035
7.83391
7.76083
7.69403
7.64282
7.61539
7.62093
7.67167
7.78486
7.99277
8.34176
8.91966
9.6761
10.4939
11.2086
11.7238
12.083
12.3062
12.3739
12.2751
11.9424
11.3513
10.4435
9.28842
8.3465
7.82739
1097.26
1025.73
6.93222
7.44138
7.7237
7.86937
7.94894
7.97907
7.95525
7.89679
7.80505
7.72299
7.65127
7.59537
7.563
7.5664
7.61745
7.74044
7.97923
8.41418
9.08236
9.94981
10.7902
11.4949
12.0337
12.4312
12.6874
12.7783
12.6691
12.3069
11.6401
10.6537
9.52355
8.62098
7.93116
1096.52
1025.9
6.94485
7.44086
7.71711
7.87496
7.9527
7.97738
7.94912
7.87456
7.79312
7.70963
7.63293
7.57136
7.53086
7.52385
7.56485
7.67632
7.91605
8.37994
9.1063
9.98254
10.8166
11.5055
12.0458
12.4509
12.7052
12.7846
12.668
12.295
11.6154
10.6751
9.68731
8.79463
7.9231
1095.79
1025.92
6.91946
7.42765
7.71207
7.87347
7.9477
7.95648
7.92444
7.85936
7.77907
7.69657
7.62381
7.57016
7.52904
7.51157
7.51732
7.57858
7.73247
8.07523
8.71103
9.60223
10.5013
11.2576
11.8741
12.3128
12.5641
12.6198
12.4704
12.0684
11.4274
10.6117
9.73314
8.83151
7.8174
1095.28
1025.81
6.86132
7.39056
7.6861
7.848
7.93435
7.94882
7.92235
7.86555
7.78712
7.70415
7.62871
7.56871
7.52417
7.49488
7.49368
7.51622
7.56822
7.71191
8.08891
8.79578
9.68506
10.508
11.2546
11.7896
12.1114
12.226
12.1494
11.834
11.2937
10.5984
9.82972
8.93742
7.84032
1095.19
1025.69
6.82141
7.3748
7.67742
7.84065
7.92774
7.94441
7.92313
7.86611
7.78824
7.70517
7.62844
7.56675
7.52296
7.49616
7.49368
7.50893
7.54247
7.59509
7.73178
8.09878
8.80493
9.64338
10.4458
11.0475
11.451
11.6633
11.6794
11.4786
11.0688
10.5014
9.8268
9.00224
7.89141
1095.26
1025.5
6.752
7.33756
7.65507
7.83097
7.91802
7.94393
7.91702
7.86682
7.79271
7.7108
7.63224
7.5632
7.51579
7.49046
7.48991
7.50462
7.53355
7.57422
7.63682
7.74007
8.01679
8.68829
9.50851
10.2596
10.7879
11.094
11.215
11.1396
10.8556
10.4039
9.83039
9.08478
8.02185
1095.53
1025.34
6.71481
7.32687
7.65611
7.82758
7.91656
7.94507
7.92445
7.87053
7.80137
7.72151
7.64295
7.57452
7.52353
7.49814
7.49204
7.50592
7.53643
7.58573
7.64933
7.72962
7.84615
8.04805
8.5818
9.34384
10.0074
10.4553
10.6943
10.7265
10.5737
10.2461
9.78892
9.16468
8.17208
1095.89
1025.19
6.68719
7.31778
7.64972
7.81848
7.91164
7.94392
7.92516
7.87423
7.80926
7.72928
7.65295
7.587
7.53738
7.50905
7.50497
7.52449
7.56568
7.63527
7.72104
7.8052
7.87649
7.9748
8.19482
8.71389
9.37852
9.92943
10.2592
10.3614
10.2839
10.034
9.67356
9.16457
8.28851
1096.17
1025.09
6.68345
7.31958
7.64791
7.82032
7.91291
7.94335
7.9278
7.87584
7.79047
7.71048
7.62501
7.55482
7.50346
7.47702
7.48024
7.51645
7.57904
7.67895
7.81726
7.98312
8.12586
8.17484
8.15008
8.26013
8.67978
9.27978
9.79905
10.0637
10.0612
9.89333
9.58531
9.15766
8.40455
1096.59
1025.09
6.70137
7.33423
7.65116
7.81644
7.90667
7.93793
7.91691
7.85727
7.78587
7.70344
7.6225
7.55224
7.50114
7.47536
7.47904
7.52471
7.60015
7.71993
7.88725
8.10136
8.34444
8.55738
8.64216
8.60997
8.64379
8.80398
9.16619
9.57938
9.79793
9.76784
9.54332
9.18856
8.53527
1097.2
1025.27
6.8054
7.39796
7.68805
7.8365
7.91734
7.93818
7.90791
7.8464
7.75961
7.66303
7.5706
7.49427
7.44408
7.42981
7.45664
7.52331
7.64195
7.82474
8.0703
8.36565
8.67886
8.98744
9.21335
9.28178
9.18406
9.04418
9.15059
9.30299
9.47698
9.5409
9.43886
9.16851
8.65623
1097.88
1025.44
6.85604
7.41556
7.69396
7.84133
7.91465
7.93356
7.89581
7.82657
7.73567
7.63637
7.54191
7.46483
7.41761
7.41223
7.45082
7.56414
7.74432
8.01649
8.35385
8.72483
9.10562
9.47384
9.77913
9.96904
9.99746
9.82574
9.48884
9.35987
9.44344
9.43897
9.33454
9.13889
8.76187
1098.16
1025.74
6.93677
7.43413
7.70423
7.85078
7.92462
7.93613
7.89257
7.8145
7.71271
7.60408
7.49982
7.41496
7.36716
7.37312
7.44409
7.60702
7.87899
8.27066
8.69054
9.10524
9.50697
9.90478
10.2773
10.5557
10.6743
10.5774
10.2466
9.83107
9.54679
9.44034
9.32699
9.11766
8.75732
1098.14
1026.03
6.94847
7.41525
7.67842
7.82459
7.90254
7.91889
7.88219
7.80412
7.70785
7.59126
7.48557
7.39738
7.34489
7.35025
7.43207
7.6249
7.94408
8.39521
8.92633
9.39312
9.82874
10.2783
10.6737
10.9306
11.0268
10.9492
10.657
10.224
9.80546
9.54737
9.33333
9.08993
8.63788
1097.19
1026.07
6.91961
7.40213
7.67536
7.82223
7.89526
7.91116
7.8789
7.80381
7.69795
7.59272
7.48677
7.3953
7.32501
7.2901
7.33883
7.51044
7.86353
8.40615
9.00893
9.51012
9.94831
10.355
10.6791
10.8966
10.9574
10.8749
10.6099
10.2408
9.89307
9.58723
9.29685
8.92736
8.2476
1095.93
1025.98
6.848
7.35502
7.64335
7.80176
7.88606
7.91037
7.87421
7.80445
7.71064
7.60144
7.49092
7.39221
7.31644
7.26562
7.24071
7.26477
7.42946
7.85192
8.48797
9.12772
9.61752
10.0353
10.3284
10.5225
10.6063
10.5961
10.4334
10.1749
9.8651
9.55189
9.20832
8.74833
7.92173
1095.33
1025.73
6.75841
7.30956
7.61656
7.78308
7.87504
7.90927
7.88665
7.83144
7.74874
7.64933
7.54369
7.44049
7.34802
7.27601
7.23433
7.22342
7.23805
7.33545
7.70287
8.34726
8.99899
9.50111
9.87263
10.0931
10.2143
10.2592
10.2171
10.0614
9.82933
9.53584
9.1617
8.6294
7.77366
1095.25
1025.49
6.67734
7.26123
7.58517
7.76161
7.86173
7.90155
7.89455
7.84905
7.7754
7.68408
7.5862
7.49051
7.40255
7.32509
7.26174
7.21891
7.2084
7.21063
7.23894
7.41222
7.9442
8.62815
9.18989
9.59448
9.81655
9.91332
9.91228
9.81149
9.62703
9.37719
9.06266
8.60816
7.78985
1095.33
1025.23
6.59371
7.21524
7.55703
7.74128
7.84682
7.89567
7.89842
7.86391
7.80054
7.71775
7.62656
7.53561
7.4511
7.3766
7.31398
7.26432
7.22914
7.22207
7.23543
7.27543
7.35996
7.64022
8.25424
8.89024
9.33995
9.5974
9.69902
9.67872
9.54996
9.33387
9.04355
8.61475
7.84492
1095.74
1025.04
6.54404
7.18752
7.54
7.72953
7.83742
7.89247
7.90321
7.87742
7.82212
7.7452
7.66037
7.57504
7.49467
7.4221
7.36063
7.31292
7.28001
7.25836
7.25224
7.26214
7.2963
7.36274
7.49941
7.95115
8.58553
9.06677
9.34287
9.43074
9.39414
9.23857
8.99944
8.64417
7.99726
1096.29
1024.87
6.50237
7.16261
7.51997
7.71425
7.82516
7.8844
7.90641
7.88471
7.83348
7.76414
7.68539
7.60684
7.53355
7.46441
7.40402
7.35401
7.32318
7.31047
7.31326
7.3282
7.34872
7.37089
7.40679
7.51318
7.84771
8.39525
8.91281
9.22362
9.27946
9.19272
8.99805
8.67206
8.11379
1096.73
1024.84
6.49974
7.15469
7.51427
7.70916
7.82152
7.87979
7.89456
7.88229
7.83045
7.77343
7.6984
7.62182
7.54952
7.4823
7.42538
7.38269
7.35773
7.35164
7.365
7.40274
7.46448
7.54982
7.60363
7.57091
7.51248
7.66317
8.11303
8.67742
9.07174
9.14901
9.00834
8.71317
8.23817
1097.4
1024.88
6.5172
7.15995
7.5146
7.71091
7.8195
7.8786
7.89434
7.88202
7.82887
7.76507
7.70272
7.62813
7.54632
7.47819
7.42616
7.39581
7.37783
7.38011
7.40768
7.47766
7.61012
7.81377
8.06699
8.21573
8.15034
7.88615
7.92316
8.09628
8.4964
8.84833
8.93477
8.7992
8.45494
1098.66
1025.02
6.57706
7.1863
7.51896
7.70887
7.81725
7.8723
7.8818
7.85837
7.80873
7.74198
7.66367
7.58473
7.51284
7.44891
7.3951
7.35477
7.33447
7.33966
7.38346
7.48326
7.68034
8.02238
8.45148
8.82921
9.02543
8.98029
8.61261
8.20165
8.29559
8.57974
8.77998
8.79293
8.64549
1099.51
1025.26
6.63992
7.20042
7.52695
7.7133
7.81508
7.86541
7.87078
7.8429
7.78722
7.7167
7.6392
7.55916
7.48163
7.41234
7.35616
7.31754
7.3011
7.3119
7.37133
7.52128
7.84994
8.38267
8.98189
9.48896
9.84081
9.99047
9.89993
9.44803
8.75187
8.58515
8.77665
8.81069
8.77168
1099.52
1025.46
6.65744
7.19796
7.51287
7.69486
7.80117
7.85014
7.85295
7.82081
7.7622
7.68786
7.60693
7.5268
7.45083
7.3835
7.32829
7.28831
7.26963
7.28002
7.34249
7.52686
7.92284
8.56477
9.27535
9.87646
10.2666
10.4091
10.2717
9.81785
9.16639
8.84641
8.82897
8.82843
8.71311
1097.91
1025.52
6.67419
7.19891
7.50961
7.68845
7.79174
7.83927
7.84198
7.8083
7.7504
7.68372
7.60298
7.52164
7.44562
7.37818
7.32229
7.28046
7.25791
7.25945
7.3122
7.48261
7.90848
8.5576
9.26999
9.87556
10.239
10.3273
10.1739
9.75733
9.24783
8.96614
8.86981
8.7397
8.29545
1096.21
1025.48
6.63463
7.17841
7.49183
7.66995
7.77298
7.82108
7.82563
7.79594
7.74402
7.68024
7.60067
7.51965
7.44339
7.37545
7.31892
7.27567
7.24482
7.23748
7.25556
7.29925
7.4348
7.89812
8.58857
9.25103
9.72132
9.90414
9.89315
9.66041
9.3364
9.07378
8.85605
8.59142
8.01126
1095.77
1025.35
6.58095
7.1432
7.46784
7.65205
7.75929
7.812
7.8193
7.79071
7.73648
7.6693
7.59665
7.51751
7.44171
7.3736
7.31676
7.27387
7.24676
7.23884
7.24852
7.27663
7.3288
7.46631
7.88586
8.51709
9.10861
9.44832
9.55554
9.48914
9.30139
9.07354
8.84748
8.54224
7.92693
1095.81
1025.27
6.56474
7.13379
7.45643
7.63822
7.7441
7.79666
7.80575
7.78076
7.73105
7.66617
7.59769
7.51972
7.44382
7.37558
7.31858
7.27567
7.24879
7.23965
7.24665
7.27574
7.33224
7.40421
7.52993
7.87773
8.46629
8.94687
9.21158
9.27904
9.20562
9.03546
8.82532
8.52929
7.93016
1096.18
1025.14
6.53101
7.11966
7.43785
7.62256
7.7314
7.78619
7.79661
7.77262
7.72353
7.65775
7.58098
7.50158
7.42562
7.35758
7.30093
7.25924
7.23606
7.23538
7.26498
7.32605
7.41413
7.47267
7.51108
7.62716
7.9876
8.48646
8.88416
9.07711
9.08249
8.98303
8.80682
8.53465
7.99922
1096.53
1025.1
6.52502
7.1114
7.42929
7.61198
7.71875
7.77163
7.78068
7.75732
7.70975
7.64604
7.57169
7.49366
7.41896
7.35224
7.29665
7.25557
7.23258
7.23243
7.26223
7.3483
7.49279
7.68643
7.76805
7.68548
7.72777
8.00623
8.44505
8.82122
8.97865
8.94899
8.79996
8.54716
8.07595
1096.96
1025.12
6.52597
7.10711
7.42349
7.60479
7.70968
7.75997
7.76568
7.73974
7.69041
7.62477
7.54639
7.46428
7.38525
7.31401
7.25367
7.20715
7.17803
7.17179
7.19557
7.2846
7.47916
7.7755
8.05588
8.13868
8.0474
7.98326
8.11552
8.43012
8.73257
8.85446
8.79453
8.58789
8.20231
1097.58
1025.18
6.55205
7.11124
7.41901
7.59402
7.6937
7.73944
7.74149
7.7114
7.65942
7.59231
7.51371
7.4323
7.35445
7.28422
7.22429
7.17689
7.14414
7.13386
7.15758
7.25241
7.47072
7.85721
8.29587
8.59984
8.67927
8.53648
8.30556
8.3628
8.54661
8.70231
8.7137
8.59547
8.32492
1098.15
1025.32
6.56967
7.11113
7.41279
7.58472
7.68111
7.7232
7.72156
7.68545
7.62837
7.55826
7.47835
7.3965
7.31825
7.24739
7.18833
7.14188
7.11531
7.10328
7.11442
7.20711
7.45592
7.88388
8.42171
8.89625
9.19115
9.25748
9.09037
8.69774
8.55779
8.67541
8.71274
8.62218
8.42586
1098.22
1025.37
6.57469
7.11105
7.40577
7.56991
7.66018
7.69706
7.69042
7.64965
7.58622
7.51352
7.43548
7.35721
7.28437
7.22173
7.16749
7.12893
7.10077
7.0894
7.10819
7.19573
7.45283
7.91157
8.48063
9.02634
9.42947
9.61737
9.53228
9.17989
8.85189
8.73694
8.7184
8.64152
8.42573
1097.75
1025.3
6.53258
7.0774
7.38152
7.54931
7.642
7.68127
7.67761
7.63969
7.57832
7.50601
7.43007
7.35343
7.28117
7.21669
7.16455
7.12897
7.10017
7.08734
7.09658
7.1493
7.28319
7.67734
8.28239
8.92156
9.40621
9.60446
9.55275
9.32337
9.0323
8.85909
8.74532
8.59587
8.20317
1096.46
1025.25
6.52083
7.07388
7.37116
7.53131
7.61856
7.65418
7.64786
7.60782
7.54499
7.47193
7.40057
7.33215
7.26763
7.21013
7.16329
7.13199
7.10469
7.09897
7.10728
7.14479
7.22415
7.37212
7.75618
8.36239
8.94529
9.27799
9.37977
9.27487
9.08491
8.91273
8.75197
8.52729
8.02841
1096.2
1025.09
6.50315
7.06119
7.35463
7.51296
7.6008
7.6383
7.63464
7.59777
7.53762
7.46542
7.394
7.32826
7.26569
7.20981
7.16397
7.13302
7.12361
7.12431
7.14236
7.17633
7.23832
7.34215
7.52606
7.91353
8.49414
8.99153
9.25613
9.23478
9.10527
8.94266
8.76297
8.5205
8.02138
1096.26
1025.08
6.50373
7.0581
7.3436
7.49705
7.58002
7.6124
7.60501
7.56461
7.50175
7.42763
7.3551
7.2941
7.23775
7.18782
7.14713
7.11894
7.10653
7.11619
7.16594
7.24844
7.37988
7.516
7.58031
7.62345
7.83833
8.20828
8.60106
8.92053
9.01221
8.95318
8.79498
8.5545
8.10227
1097.44
1025.22
6.56107
7.07033
7.34146
7.48835
7.56593
7.59177
7.57813
7.53127
7.46282
7.38323
7.30316
7.23488
7.17359
7.11921
7.07749
7.05357
7.05323
7.07576
7.16314
7.28458
7.47651
7.71452
7.95053
8.0801
8.1357
8.22593
8.52401
8.8017
8.96311
8.95552
8.82528
8.61976
8.31562
1098.5
1025.48
6.59832
7.07501
7.32978
7.47065
7.54294
7.56288
7.54229
7.48862
7.41455
7.33078
7.24659
7.17237
7.10565
7.04676
7.00323
6.98101
6.98789
7.03955
7.17043
7.41292
7.74549
8.08633
8.36487
8.56839
8.67649
8.67772
8.69879
8.88004
8.99955
8.99618
8.88101
8.69489
8.4117
1098.48
1025.63
6.61071
7.06899
7.3234
7.45778
7.52327
7.53625
7.50676
7.44627
7.36709
7.28087
7.19688
7.1145
7.03955
6.97396
6.92617
6.90687
6.92506
7.00787
7.20968
7.54233
7.98465
8.41809
8.76894
8.9758
9.04591
9.064
9.10446
9.18866
9.21012
9.10563
8.9266
8.68735
8.3075
1097.07
1025.62
6.56159
7.02209
7.28548
7.42529
7.49555
7.51312
7.49008
7.43381
7.35519
7.26524
7.1739
7.09232
7.01634
6.95319
6.90317
6.87562
6.88306
6.95584
7.14864
7.51168
7.95981
8.36179
8.71711
8.96029
9.11253
9.20927
9.26883
9.28364
9.21646
9.08986
8.89315
8.58136
7.99726
1095.98
1025.54
6.5255
7.00442
7.26895
7.40723
7.4764
7.49285
7.46882
7.4129
7.33768
7.25386
7.16722
7.08467
7.00858
6.94459
6.89249
6.85899
6.84796
6.86477
6.97437
7.2473
7.70016
8.15452
8.52263
8.8076
9.02644
9.17643
9.26029
9.27654
9.21501
9.07286
8.84345
8.46975
7.78716
1095.67
1025.34
6.43881
6.94448
7.22195
7.36827
7.44546
7.4706
7.45599
7.40724
7.33497
7.25062
7.1626
7.07958
7.00387
6.94067
6.89136
6.85769
6.84353
6.84493
6.86375
6.93827
7.17162
7.61323
8.05064
8.41755
8.68203
8.88392
9.02945
9.09897
9.07974
8.96848
8.77533
8.45581
7.78806
1095.68
1025.14
6.39585
6.92099
7.20167
7.34913
7.42762
7.4556
7.44311
7.39695
7.32729
7.24501
7.15996
7.081
7.00702
6.94452
6.89242
6.85929
6.84222
6.84204
6.86595
6.91152
6.99433
7.18464
7.6273
8.15698
8.55174
8.8158
8.97124
9.03032
9.01309
8.93502
8.77564
8.46854
7.81343
1096.09
1025
6.36252
6.88802
7.16819
7.31795
7.39966
7.43245
7.42484
7.38345
7.31723
7.23613
7.1502
7.06829
6.99916
6.9476
6.90448
6.87838
6.86508
6.8701
6.89279
6.93042
6.97557
7.00608
7.06337
7.33891
7.76368
8.21832
8.60816
8.86148
8.95688
8.92194
8.78567
8.52273
8.03311
1097.22
1024.98
6.35864
6.8811
7.15085
7.30014
7.38265
7.41614
7.41007
7.37056
7.3071
7.22931
7.14636
7.06684
6.9986
6.95019
6.9152
6.89585
6.89276
6.91338
6.97128
7.06928
7.20809
7.34545
7.40217
7.4058
7.50841
7.70571
8.02719
8.40526
8.69751
8.81899
8.76385
8.56306
8.22593
1098.14
1025.11
6.40243
6.88294
7.1384
7.28022
7.3581
7.3876
7.37821
7.33495
7.26755
7.1859
7.10016
7.01987
6.95334
6.9037
6.87554
6.87398
6.89762
6.95601
7.05039
7.19375
7.39396
7.6229
7.80603
7.89033
7.86205
7.84905
8.00862
8.23348
8.49527
8.67461
8.7026
8.6141
8.36233
1098.37
1025.27
6.44163
6.87687
7.12361
7.2617
7.33666
7.36243
7.34904
7.30165
7.23066
7.14594
7.05821
6.97801
6.91297
6.86928
6.85313
6.86822
6.927
7.01973
7.17732
7.3984
7.67668
7.97731
8.23947
8.41885
8.4803
8.42134
8.2716
8.29456
8.50832
8.66162
8.68246
8.61167
8.42408
1098.29
1025.49
6.45787
6.85845
7.09638
7.23173
7.30436
7.32731
7.31039
7.25952
7.1857
7.0996
7.011
6.93111
6.86717
6.82802
6.82427
6.86131
6.95731
7.11615
7.3555
7.66823
8.00367
8.31728
8.58076
8.78315
8.88349
8.87002
8.74549
8.62337
8.61211
8.6674
8.68433
8.60251
8.38137
1097.58
1025.66
6.45652
6.83549
7.07051
7.20445
7.27581
7.29573
7.27282
7.21721
7.14056
7.05459
6.96809
6.88707
6.82205
6.78573
6.78849
6.84182
6.96228
7.1785
7.47325
7.82787
8.19484
8.5325
8.81318
9.01227
9.11812
9.12658
9.02976
8.90956
8.82937
8.77519
8.68932
8.52877
8.16071
1096.62
1025.67
6.39614
6.78068
7.02301
7.15929
7.23246
7.25552
7.24254
7.19642
7.12627
7.04224
6.95494
6.87469
6.80749
6.75809
6.74307
6.77605
6.88377
7.10178
7.44507
7.83822
8.1823
8.48068
8.77949
8.98117
9.09791
9.1302
9.11791
9.05372
8.95856
8.83105
8.6556
8.3941
7.87659
1095.83
1025.56
6.32064
6.72714
6.97966
7.12199
7.20072
7.22721
7.21656
7.1732
7.10915
7.0348
6.95396
6.87518
6.80696
6.75293
6.71261
6.70175
6.73722
6.86595
7.14752
7.54987
7.96131
8.27571
8.54473
8.74117
8.88459
8.99773
9.03899
9.0143
8.93035
8.80052
8.60082
8.27872
7.65956
1095.43
1025.34
6.22624
6.658
6.92
7.06799
7.15391
7.1902
7.19152
7.15964
7.10368
7.03486
6.95149
6.87372
6.8073
6.75331
6.71679
6.69498
6.69432
6.71754
6.81939
7.09074
7.51465
7.96509
8.29708
8.55766
8.73468
8.86
8.92092
8.92184
8.86237
8.72974
8.51952
8.16533
7.51408
1095.26
1025.14
6.14403
6.60182
6.87361
7.02732
7.11834
7.16434
7.17069
7.14711
7.10049
7.04038
6.96787
6.89766
6.83246
6.77558
6.72866
6.6944
6.67967
6.68047
6.68957
6.72692
6.86826
7.22131
7.66537
8.05333
8.35007
8.53926
8.66786
8.72484
8.70433
8.60781
8.4357
8.12545
7.50745
1095.28
1024.82
6.04309
6.52723
6.80991
6.9729
7.07282
7.12846
7.14511
7.13149
7.09293
7.03921
6.97451
6.90913
6.84931
6.79908
6.75867
6.72701
6.7007
6.69212
6.70191
6.72757
6.77212
6.85138
7.08974
7.53699
8.08228
8.42182
8.55736
8.64184
8.66744
8.58918
8.42098
8.13153
7.52883
1095.63
1024.71
6.01138
6.48738
6.76748
6.9343
7.03929
7.09991
7.12357
7.11689
7.08601
7.04146
6.98152
6.91849
6.86015
6.81164
6.7739
6.74855
6.735
6.72839
6.7317
6.74525
6.76975
6.80049
6.82682
6.8361
6.89635
7.19323
7.7036
8.15082
8.46427
8.56001
8.48385
8.25291
7.81635
1097.43
1024.71
5.99983
6.45765
6.7352
6.90287
7.00892
7.06994
7.09325
7.08628
7.05304
7.00089
6.94039
6.88009
6.82786
6.79109
6.76646
6.75625
6.75467
6.76438
6.79026
6.83253
6.89525
6.98675
7.10929
7.23456
7.24396
7.21386
7.24728
7.43238
7.72708
8.11082
8.32537
8.27312
8.11534
1099.23
1024.8
5.99952
6.43359
6.7001
6.86348
6.9695
7.03257
7.05984
7.05763
7.03107
6.98685
6.93204
6.87454
6.8229
6.78719
6.76436
6.75297
6.75601
6.77425
6.80823
6.85503
6.9205
7.01837
7.17177
7.41275
7.67739
7.86887
7.83568
7.6869
7.72007
7.94152
8.24964
8.32704
8.37312
1099.45
1024.89
6.00339
6.41989
6.67737
6.8355
6.93828
6.99849
7.02256
7.01693
6.98626
6.93796
6.88013
6.82147
6.77114
6.7392
6.72512
6.72805
6.74992
6.78058
6.82729
6.89236
6.97976
7.098
7.27695
7.56842
7.96471
8.29382
8.38896
8.21688
7.95668
8.03433
8.30109
8.38352
8.36846
1098.34
1024.9
5.98977
6.3868
6.63421
6.78951
6.89335
6.95665
6.98422
6.98168
6.95465
6.90996
6.85566
6.79971
6.7516
6.72234
6.71366
6.72048
6.74944
6.79369
6.86231
6.95595
7.06892
7.18686
7.32022
7.54983
7.92743
8.28273
8.38307
8.30681
8.20293
8.21492
8.31543
8.33935
8.12411
1096.59
1024.89
5.98831
6.36765
6.60306
6.75353
6.85592
6.91902
6.94568
6.94222
6.91373
6.86757
6.81185
6.75511
6.70629
6.67721
6.67691
6.69419
6.73972
6.80157
6.89346
7.01939
7.17691
7.32958
7.42313
7.46826
7.59671
7.86225
8.08223
8.20885
8.23261
8.27684
8.30138
8.24651
7.96576
1096.44
1024.92
5.98978
6.33432
6.5577
6.70853
6.81414
6.88055
6.90906
6.9072
6.88057
6.83609
6.78152
6.72506
6.67565
6.64364
6.64786
6.67785
6.74475
6.82574
6.94456
7.10123
7.28923
7.49661
7.68665
7.7868
7.79915
7.86545
8.02069
8.11926
8.20277
8.27336
8.28966
8.23691
7.95859
1096.97
1025.08
6.03134
6.32199
6.52791
6.67549
6.78074
6.84623
6.87227
6.86641
6.83405
6.78331
6.72239
6.66118
6.61086
6.58338
6.59262
6.64688
6.74646
6.89246
7.09508
7.3321
7.57903
7.82543
8.06156
8.24387
8.32712
8.28391
8.16248
8.14991
8.2014
8.27014
8.30043
8.23616
8.05652
1098.24
1025.37
6.03545
6.26654
6.47051
6.62559
6.73712
6.80652
6.83437
6.82892
6.79732
6.74674
6.68396
6.61959
6.5679
6.54479
6.56446
6.65096
6.81407
7.06506
7.38545
7.70787
8.00629
8.28257
8.53465
8.76929
8.94708
9.01181
8.91113
8.66557
8.46182
8.3677
8.32201
8.27664
8.17263
1098.31
1025.5
5.9769
6.20706
6.42208
6.58211
6.69655
6.76749
6.79537
6.78962
6.75884
6.71133
6.65506
6.58941
6.53045
6.50446
6.53716
6.64575
6.85915
7.17354
7.56809
7.99881
8.3424
8.63546
8.91774
9.14686
9.29957
9.34177
9.25222
9.02096
8.74517
8.57631
8.46189
8.32118
8.14932
1097.22
1025.39
5.8584
6.1033
6.33269
6.50623
6.63505
6.72162
6.7654
6.77198
6.75199
6.71267
6.65184
6.58478
6.52359
6.47612
6.45536
6.51248
6.71472
7.11714
7.60369
8.07361
8.40985
8.67569
8.93298
9.111
9.21929
9.24071
9.16606
8.9983
8.83865
8.66252
8.47052
8.25014
7.74161
1095.53
1025.19
5.75919
6.0313
6.26737
6.44528
6.57999
6.67396
6.72673
6.74173
6.73473
6.70785
6.64647
6.5822
6.52003
6.46886
6.43853
6.4313
6.45062
6.56624
6.94977
7.51504
8.05952
8.45047
8.70571
8.8868
8.99074
9.04352
9.05161
8.98644
8.83519
8.66105
8.41837
8.03295
7.34932
1094.91
1024.9
5.62409
5.93088
6.18195
6.37269
6.52244
6.63333
6.70165
6.72973
6.73153
6.71111
6.66433
6.61105
6.5525
6.49453
6.44522
6.41166