/*--------------------------------*- C++ -*----------------------------------*\
| =========                 |                                                 |
| \\      /  F ield         | OpenFOAM: The Open Source CFD Toolbox           |
|  \\    /   O peration     | Version:  2.0.x                                 |
|   \\  /    A nd           | Web:      www.OpenFOAM.org                      |
|    \\/     M anipulation  |                                                 |
\*---------------------------------------------------------------------------*/
FoamFile
{
    version     2.0;
    format      ascii;
    class       surfaceScalarField;
    location    "200";
    object      phi;
}
// * * * * * * * * * * * * * * * * * * * * * * * * * * * * * * * * * * * * * //

dimensions      [1 0 -1 0 0 0 0];

internalField   nonuniform List<scalar> 
228225
(
-1.39855e-06
4.09746e-07
1.64828e-07
-1.69833e-06
-4.4829e-08
3.44389e-07
-9.60076e-07
-1.15712e-06
4.18596e-07
1.00784e-06
-2.4118e-06
4.43597e-07
4.13501e-06
-3.57728e-06
4.49793e-07
8.23798e-06
-4.55539e-06
4.52097e-07
1.30303e-05
-5.25075e-06
4.58176e-07
1.81768e-05
-5.59302e-06
4.46314e-07
2.35392e-05
-5.80065e-06
4.38032e-07
2.87852e-05
-5.68216e-06
4.36021e-07
3.36527e-05
-5.30471e-06
4.37043e-07
3.80517e-05
-4.8377e-06
4.38563e-07
4.19132e-05
-4.30076e-06
4.39126e-07
4.51982e-05
-3.72331e-06
4.38263e-07
4.79231e-05
-3.16339e-06
4.38318e-07
5.00414e-05
-2.55441e-06
4.35947e-07
5.16062e-05
-1.99615e-06
4.312e-07
5.26309e-05
-1.44966e-06
4.24654e-07
5.29594e-05
-7.44788e-07
4.16073e-07
5.2837e-05
-2.84337e-07
4.0663e-07
5.21705e-05
2.7265e-07
3.9359e-07
5.10293e-05
7.62131e-07
3.78854e-07
4.92704e-05
1.39664e-06
3.61953e-07
4.7023e-05
1.90425e-06
3.42802e-07
4.43434e-05
2.35581e-06
3.23446e-07
4.1348e-05
2.69479e-06
3.00269e-07
3.78742e-05
3.19318e-06
2.8016e-07
3.40074e-05
3.61694e-06
2.49415e-07
2.97877e-05
4.00508e-06
2.14081e-07
2.5263e-05
4.35036e-06
1.7365e-07
2.05065e-05
4.62914e-06
1.26577e-07
1.55959e-05
4.83753e-06
7.21778e-08
1.05166e-05
5.0713e-06
6.39074e-09
5.01764e-06
5.55839e-06
-6.12369e-08
5.06485e-06
-4.72649e-08
1.07389e-06
-7.71368e-07
1.06315e-07
4.13436e-06
-3.31921e-06
2.12632e-07
8.62633e-06
-5.90895e-06
2.58636e-07
1.38252e-05
-7.89267e-06
2.80989e-07
1.90427e-05
-9.09543e-06
2.99887e-07
2.38765e-05
-9.70628e-06
3.16471e-07
2.82032e-05
-9.91533e-06
3.37352e-07
3.19728e-05
-9.72311e-06
3.60111e-07
3.49874e-05
-9.19447e-06
3.78768e-07
3.73966e-05
-8.47787e-06
3.86143e-07
3.92929e-05
-7.59446e-06
3.9302e-07
4.06988e-05
-6.64085e-06
3.9674e-07
4.1654e-05
-5.65423e-06
3.97819e-07
4.22028e-05
-4.66963e-06
3.9711e-07
4.2373e-05
-3.7273e-06
3.93231e-07
4.22798e-05
-2.85091e-06
3.89141e-07
4.18721e-05
-1.97386e-06
3.84869e-07
4.11007e-05
-1.06038e-06
3.81558e-07
4.01567e-05
-1.81097e-07
3.79747e-07
3.89459e-05
5.45695e-07
3.80204e-07
3.74425e-05
1.39469e-06
3.8079e-07
3.56563e-05
2.16331e-06
3.84353e-07
3.36389e-05
3.02399e-06
3.89338e-07
3.14606e-05
3.69205e-06
3.89775e-07
2.91884e-05
4.24208e-06
3.85279e-07
2.68813e-05
4.62161e-06
3.79673e-07
2.46063e-05
5.10802e-06
3.59294e-07
2.21574e-05
5.7174e-06
3.47399e-07
1.95115e-05
6.31908e-06
3.30841e-07
1.66406e-05
6.91061e-06
3.09323e-07
1.35007e-05
7.48938e-06
2.7831e-07
1.00578e-05
8.05225e-06
2.26705e-07
6.25919e-06
8.72356e-06
1.44672e-07
2.45347e-06
9.32166e-06
4.03797e-08
7.5193e-06
-1.04226e-09
1.69056e-06
-2.5423e-06
7.9353e-08
5.40422e-06
-7.20508e-06
1.71183e-07
9.50448e-06
-1.02438e-05
2.33786e-07
1.30589e-05
-1.17336e-05
2.85916e-07
1.57867e-05
-1.21537e-05
3.30113e-07
1.77469e-05
-1.20131e-05
3.46154e-07
1.89857e-05
-1.15179e-05
3.6339e-07
1.95878e-05
-1.07021e-05
3.76443e-07
1.97428e-05
-9.73715e-06
3.87238e-07
1.95477e-05
-8.67683e-06
3.93658e-07
1.9036e-05
-7.47367e-06
3.90451e-07
1.82202e-05
-6.20571e-06
3.80125e-07
1.71589e-05
-4.95594e-06
3.62396e-07
1.59562e-05
-3.80587e-06
3.3829e-07
1.47283e-05
-2.81156e-06
3.11474e-07
1.35598e-05
-1.96942e-06
2.86284e-07
1.25262e-05
-1.20842e-06
2.67236e-07
1.16634e-05
-4.5759e-07
2.5924e-07
1.08718e-05
3.49331e-07
2.60519e-07
1.01555e-05
9.9783e-07
2.63415e-07
9.50935e-06
1.76631e-06
2.73617e-07
8.83316e-06
2.55161e-06
2.87036e-07
8.26636e-06
3.29309e-06
2.96905e-07
7.70106e-06
3.95704e-06
2.99563e-07
7.10168e-06
4.54624e-06
2.9445e-07
6.39851e-06
5.04146e-06
2.82497e-07
5.73656e-06
5.49763e-06
2.71418e-07
5.14298e-06
6.06367e-06
2.46236e-07
4.59302e-06
6.64774e-06
2.20106e-07
4.03174e-06
7.27973e-06
1.90822e-07
3.34515e-06
8.01828e-06
1.56317e-07
2.322e-06
8.95802e-06
1.16112e-07
1.05128e-06
9.93994e-06
5.27529e-08
1.06548e-08
1.03761e-05
-1.56095e-08
7.56292e-06
-3.30118e-08
1.24861e-06
-3.87598e-06
8.36716e-08
3.15521e-06
-9.3059e-06
1.93148e-07
4.61948e-06
-1.19813e-05
2.72425e-07
5.3979e-06
-1.28369e-05
3.24308e-07
5.80589e-06
-1.29101e-05
3.47904e-07
6.0619e-06
-1.26348e-05
3.65316e-07
6.19106e-06
-1.20204e-05
3.72813e-07
6.18269e-06
-1.10729e-05
3.78536e-07
5.90222e-06
-9.84372e-06
3.86385e-07
5.2681e-06
-8.43734e-06
3.93983e-07
4.346e-06
-6.94523e-06
3.92948e-07
3.21361e-06
-5.45505e-06
3.80941e-07
1.94871e-06
-4.04864e-06
3.567e-07
6.29677e-07
-2.80939e-06
3.21579e-07
-6.60446e-07
-1.80451e-06
2.82046e-07
-1.83603e-06
-1.04379e-06
2.48975e-07
-2.77271e-06
-5.01046e-07
2.28403e-07
-3.40442e-06
-4.67679e-08
2.19977e-07
-3.69415e-06
4.17946e-07
2.20166e-07
-3.81659e-06
8.92952e-07
2.26356e-07
-3.6788e-06
1.3906e-06
2.36945e-07
-3.28786e-06
1.91139e-06
2.4831e-07
-2.70555e-06
2.45195e-06
2.57871e-07
-2.02023e-06
3.00862e-06
2.62108e-07
-1.3233e-06
3.58806e-06
2.60288e-07
-7.42396e-07
4.20591e-06
2.53717e-07
-2.85546e-07
4.8016e-06
2.38236e-07
1.34969e-07
5.42859e-06
2.13589e-07
4.91175e-07
6.1073e-06
1.83231e-07
7.30536e-07
6.89086e-06
1.48503e-07
7.72087e-07
7.86802e-06
1.0753e-07
5.56427e-07
9.12083e-06
5.16527e-08
1.55374e-07
1.03442e-05
-4.6196e-09
-1.25855e-07
1.07027e-05
-4.70767e-08
7.4744e-06
-3.73796e-08
5.94701e-07
-4.552e-06
8.01309e-08
1.21504e-06
-1.01188e-05
1.91733e-07
1.59246e-06
-1.26282e-05
2.688e-07
1.84386e-06
-1.34063e-05
3.17445e-07
2.01833e-06
-1.3431e-05
3.45989e-07
2.06523e-06
-1.30486e-05
3.66377e-07
1.9674e-06
-1.23073e-05
3.84178e-07
1.74217e-06
-1.12491e-05
4.009e-07
1.42443e-06
-9.9422e-06
4.15575e-07
1.06092e-06
-8.49746e-06
4.22873e-07
6.76078e-07
-6.98816e-06
4.26932e-07
2.89776e-07
-5.49286e-06
4.23196e-07
-9.6736e-08
-4.07149e-06
4.0835e-07
-5.08935e-07
-2.77966e-06
3.81385e-07
-9.90674e-07
-1.66855e-06
3.44702e-07
-1.5708e-06
-7.70698e-07
3.05988e-07
-2.23148e-06
-1.14542e-07
2.73106e-07
-2.91425e-06
3.89223e-07
2.45733e-07
-3.49611e-06
7.71457e-07
2.27373e-07
-3.91031e-06
1.08841e-06
2.178e-07
-4.1134e-06
1.37755e-06
2.15225e-07
-4.0875e-06
1.6665e-06
2.1808e-07
-3.83732e-06
1.97628e-06
2.24551e-07
-3.38497e-06
2.32186e-06
2.33443e-07
-2.75954e-06
2.72178e-06
2.39861e-07
-1.99324e-06
3.19826e-06
2.40331e-07
-1.18563e-06
3.76112e-06
2.31825e-07
-4.03713e-07
4.43267e-06
2.12899e-07
2.64421e-07
5.25442e-06
1.83584e-07
7.12003e-07
6.29737e-06
1.44669e-07
8.32224e-07
7.65021e-06
9.64373e-08
6.40767e-07
9.27272e-06
3.85339e-08
2.43378e-07
1.07578e-05
-1.75016e-08
-6.81695e-08
1.10607e-05
-4.79009e-08
7.43315e-06
-2.6966e-08
1.11442e-07
-4.74797e-06
8.3608e-08
1.85033e-07
-1.03986e-05
2.05538e-07
1.56695e-07
-1.28854e-05
2.85062e-07
5.30095e-08
-1.36354e-05
3.3243e-07
-7.01705e-08
-1.36689e-05
3.60664e-07
-2.0163e-07
-1.32977e-05
3.80148e-07
-3.2175e-07
-1.25842e-05
3.96635e-07
-4.13296e-07
-1.15709e-05
4.12855e-07
-4.54182e-07
-1.03321e-05
4.30233e-07
-4.49166e-07
-8.95098e-06
4.47871e-07
-3.89141e-07
-7.51127e-06
4.62381e-07
-2.74929e-07
-6.07843e-06
4.70576e-07
-1.19361e-07
-4.69641e-06
4.6849e-07
4.52034e-08
-3.39755e-06
4.5237e-07
1.67157e-07
-2.21202e-06
4.20472e-07
1.87667e-07
-1.1681e-06
3.75783e-07
3.6896e-08
-2.90286e-07
3.2541e-07
-2.6031e-07
4.09372e-07
2.76018e-07
-6.04787e-07
8.82757e-07
2.32216e-07
-9.54097e-07
1.24031e-06
1.96515e-07
-1.25334e-06
1.50479e-06
1.71146e-07
-1.45999e-06
1.71952e-06
1.5278e-07
-1.53724e-06
1.91326e-06
1.39426e-07
-1.46106e-06
2.11374e-06
1.31043e-07
-1.22238e-06
2.35263e-06
1.29509e-07
-8.25072e-07
2.66631e-06
1.33608e-07
-3.01516e-07
3.09766e-06
1.38757e-07
2.76191e-07
3.7131e-06
1.40622e-07
7.95767e-07
4.59963e-06
1.33888e-07
1.11957e-06
5.85932e-06
1.1289e-07
1.12636e-06
7.56871e-06
7.34181e-08
8.30139e-07
9.5455e-06
2.23078e-08
4.21706e-07
1.11928e-05
-2.78626e-08
8.55046e-08
1.14454e-05
-5.01083e-08
7.54324e-06
-2.4625e-08
3.92152e-08
-4.86591e-06
7.79625e-08
4.30688e-08
-1.05964e-05
1.93473e-07
1.86763e-08
-1.31329e-05
2.71482e-07
-2.57216e-08
-1.39112e-05
3.1981e-07
-7.98874e-08
-1.39642e-05
3.49194e-07
-1.26127e-07
-1.36213e-05
3.69477e-07
-1.46023e-07
-1.29514e-05
3.8674e-07
-1.24859e-07
-1.19961e-05
4.03526e-07
-5.92667e-08
-1.08183e-05
4.20121e-07
5.35249e-08
-9.50106e-06
4.36757e-07
2.14668e-07
-8.12676e-06
4.5375e-07
4.24741e-07
-6.75958e-06
4.70416e-07
6.85063e-07
-5.44214e-06
4.84672e-07
9.93379e-07
-4.19968e-06
4.93005e-07
1.33521e-06
-3.04589e-06
4.91137e-07
1.67885e-06
-1.98804e-06
4.7528e-07
1.97496e-06
-1.03117e-06
4.43754e-07
2.16298e-06
-1.81105e-07
4.01482e-07
2.18819e-06
4.99289e-07
3.57294e-07
2.09618e-06
1.02358e-06
3.07794e-07
1.8836e-06
1.46153e-06
2.5497e-07
1.6191e-06
1.77911e-06
2.04053e-07
1.34699e-06
2.02414e-06
1.6041e-07
1.10129e-06
2.23197e-06
1.26666e-07
9.14772e-07
2.43754e-06
1.0073e-07
8.17017e-07
2.68053e-06
8.25558e-08
8.2752e-07
3.01585e-06
7.0185e-08
9.38064e-07
3.53832e-06
6.29499e-08
1.0864e-06
4.38815e-06
6.17881e-08
1.18028e-06
5.703e-06
6.09699e-08
1.14827e-06
7.55064e-06
4.87117e-08
9.15391e-07
9.7561e-06
2.12532e-08
5.38539e-07
1.15822e-05
-1.37237e-08
1.71406e-07
1.18405e-05
-2.9508e-08
7.72598e-06
-1.1387e-08
-9.12586e-09
-4.93774e-06
8.02528e-08
-5.57202e-08
-1.07526e-05
2.0225e-07
-1.22465e-07
-1.335e-05
2.83412e-07
-1.93306e-07
-1.41722e-05
3.31572e-07
-2.60214e-07
-1.42583e-05
3.60642e-07
-3.10234e-07
-1.39517e-05
3.80148e-07
-3.29736e-07
-1.33284e-05
3.96092e-07
-3.08694e-07
-1.24286e-05
4.11107e-07
-2.43514e-07
-1.13098e-05
4.25843e-07
-1.38242e-07
-1.00472e-05
4.40357e-07
2.1552e-10
-8.72037e-06
4.54602e-07
1.6917e-07
-7.3978e-06
4.68652e-07
3.71492e-07
-6.12756e-06
4.82438e-07
6.14161e-07
-4.93835e-06
4.95269e-07
9.05984e-07
-3.84396e-06
5.05442e-07
1.25473e-06
-2.84789e-06
5.10225e-07
1.66327e-06
-1.94696e-06
5.06277e-07
2.12576e-06
-1.1348e-06
4.90226e-07
2.55687e-06
-3.94307e-07
4.61538e-07
2.91509e-06
2.3971e-07
4.24666e-07
3.14349e-06
8.52041e-07
3.80097e-07
3.25963e-06
1.32626e-06
3.3572e-07
3.215e-06
1.77902e-06
2.88762e-07
3.0461e-06
2.1631e-06
2.36742e-07
2.80894e-06
2.49028e-06
1.83385e-07
2.56786e-06
2.79074e-06
1.2982e-07
2.34439e-06
3.15067e-06
8.75498e-08
2.17213e-06
3.64978e-06
5.95442e-08
2.07059e-06
4.4463e-06
4.18287e-08
1.99138e-06
5.75094e-06
2.98065e-08
1.83281e-06
7.68301e-06
2.49916e-08
1.43333e-06
1.01425e-05
1.20212e-08
8.53093e-07
1.21696e-05
-8.32808e-09
2.87749e-07
1.24216e-05
-1.74313e-08
8.01618e-06
-2.50009e-09
-2.05593e-08
-4.99765e-06
7.97847e-08
-6.48761e-08
-1.09043e-05
1.95576e-07
-1.00766e-07
-1.35862e-05
2.71783e-07
-1.31823e-07
-1.44619e-05
3.20427e-07
-1.60487e-07
-1.45801e-05
3.50171e-07
-1.79394e-07
-1.43037e-05
3.70536e-07
-1.7862e-07
-1.37168e-05
3.87282e-07
-1.48638e-07
-1.2862e-05
4.03019e-07
-8.29474e-08
-1.17944e-05
4.18565e-07
2.07833e-08
-1.05855e-05
4.34119e-07
1.59673e-07
-9.30943e-06
4.49678e-07
3.28961e-07
-8.03282e-06
4.65184e-07
5.2556e-07
-6.80529e-06
4.80527e-07
7.49857e-07
-5.65886e-06
4.95562e-07
1.00566e-06
-4.61044e-06
5.09982e-07
1.29923e-06
-3.66529e-06
5.23084e-07
1.63877e-06
-2.82076e-06
5.33473e-07
2.03552e-06
-2.07084e-06
5.38456e-07
2.51098e-06
-1.40581e-06
5.35121e-07
3.01077e-06
-7.84895e-07
5.23897e-07
3.52068e-06
-1.59965e-07
5.01181e-07
3.95944e-06
4.17654e-07
4.68866e-07
4.32315e-06
9.91145e-07
4.23139e-07
4.53138e-06
1.58173e-06
3.72139e-07
4.57155e-06
2.13476e-06
3.1431e-07
4.45336e-06
2.65677e-06
2.50994e-07
4.23367e-06
3.18989e-06
1.79218e-07
3.93992e-06
3.84147e-06
1.00791e-07
3.57448e-06
4.775e-06
3.55246e-08
3.09889e-06
6.23462e-06
-9.33264e-09
2.41606e-06
8.40005e-06
-3.54308e-08
1.56992e-06
1.1033e-05
-4.53934e-08
7.83073e-07
1.30019e-05
-4.65947e-08
1.88421e-07
1.30538e-05
-3.90456e-08
8.21637e-06
-1.18235e-08
-3.42159e-08
-5.04574e-06
8.16519e-08
-9.70809e-08
-1.10395e-05
1.97645e-07
-1.54313e-07
-1.3804e-05
2.74653e-07
-2.07625e-07
-1.47348e-05
3.25848e-07
-2.57873e-07
-1.48875e-05
3.57395e-07
-2.97987e-07
-1.46418e-05
3.77987e-07
-3.18571e-07
-1.40899e-05
3.93403e-07
-3.10759e-07
-1.32768e-05
4.06649e-07
-2.68732e-07
-1.22558e-05
4.19013e-07
-1.9088e-07
-1.10948e-05
4.31073e-07
-7.93099e-08
-9.86457e-06
4.43109e-07
6.13278e-08
-8.62928e-06
4.55327e-07
2.26785e-07
-7.43914e-06
4.67859e-07
4.14894e-07
-6.32829e-06
4.80745e-07
6.26228e-07
-5.31634e-06
4.93954e-07
8.62985e-07
-4.41005e-06
5.07355e-07
1.12609e-06
-3.60519e-06
5.20641e-07
1.4118e-06
-2.89033e-06
5.33069e-07
1.71549e-06
-2.25261e-06
5.42358e-07
2.06113e-06
-1.67772e-06
5.46368e-07
2.47135e-06
-1.11775e-06
5.46717e-07
2.86624e-06
-5.19089e-07
5.40963e-07
3.23947e-06
8.9778e-08
5.27119e-07
3.58514e-06
7.35824e-07
4.99092e-07
3.82116e-06
1.4391e-06
4.58488e-07
3.84867e-06
2.22248e-06
4.05668e-07
3.66618e-06
3.03711e-06
3.34071e-07
3.30782e-06
3.9514e-06
2.47143e-07
2.76972e-06
5.17036e-06
1.41445e-07
2.0847e-06
6.88334e-06
3.50616e-08
1.33745e-06
9.19486e-06
-4.86468e-08
6.72829e-07
1.17896e-05
-9.28449e-08
2.34084e-07
1.35398e-05
-1.00147e-07
-5.0623e-09
1.33702e-05
-7.85808e-08
8.23895e-06
-2.76818e-08
-7.12138e-08
-5.05348e-06
7.83426e-08
-1.47446e-07
-1.11462e-05
1.82516e-07
-1.92595e-07
-1.40153e-05
2.56161e-07
-2.11905e-07
-1.5018e-05
3.02234e-07
-2.21127e-07
-1.52153e-05
3.36781e-07
-2.18403e-07
-1.50071e-05
3.62349e-07
-1.94798e-07
-1.44963e-05
3.82579e-07
-1.42178e-07
-1.37298e-05
4.00131e-07
-5.63794e-08
-1.2758e-05
4.16063e-07
6.24011e-08
-1.16446e-05
4.30646e-07
2.10495e-07
-1.04571e-05
4.43997e-07
3.81123e-07
-9.25655e-06
4.56221e-07
5.67464e-07
-8.09347e-06
4.67531e-07
7.64092e-07
-7.00362e-06
4.78222e-07
9.67768e-07
-6.00916e-06
4.88641e-07
1.17806e-06
-5.12004e-06
4.99179e-07
1.39666e-06
-4.33457e-06
5.10239e-07
1.62364e-06
-3.63985e-06
5.21996e-07
1.85316e-06
-3.01556e-06
5.32847e-07
2.0738e-06
-2.44063e-06
5.41658e-07
2.30046e-06
-1.89311e-06
5.48005e-07
2.54371e-06
-1.31614e-06
5.53045e-07
2.75435e-06
-6.76235e-07
5.54578e-07
2.90666e-06
3.12951e-08
5.51319e-07
3.02758e-06
7.7752e-07
5.39635e-07
3.07138e-06
1.66436e-06
5.13204e-07
2.91917e-06
2.71402e-06
4.74084e-07
2.54905e-06
3.90646e-06
4.13797e-07
2.08937e-06
5.30419e-06
3.24676e-07
1.65545e-06
7.10806e-06
2.08066e-07
1.32422e-06
9.43663e-06
8.84705e-08
1.07852e-06
1.20383e-05
-3.71327e-09
7.32978e-07
1.39328e-05
-4.83091e-08
3.27778e-07
1.3817e-05
-4.29025e-08
8.57194e-06
-5.23125e-09
-2.15381e-08
-5.10735e-06
7.4854e-08
-4.00845e-08
-1.13019e-05
1.73868e-07
-3.41068e-08
-1.42607e-05
2.39109e-07
-1.29102e-08
-1.53252e-05
2.85764e-07
1.12483e-08
-1.55595e-05
3.19856e-07
3.84607e-08
-1.538e-05
3.45468e-07
7.49341e-08
-1.48987e-05
3.65665e-07
1.27742e-07
-1.4166e-05
3.83105e-07
2.03705e-07
-1.32333e-05
3.99026e-07
3.08598e-07
-1.21635e-05
4.13737e-07
4.46026e-07
-1.10221e-05
4.27293e-07
6.1646e-07
-9.86695e-06
4.39633e-07
8.17207e-07
-8.74533e-06
4.50762e-07
1.04416e-06
-7.69172e-06
4.60782e-07
1.29261e-06
-6.72788e-06
4.69894e-07
1.55828e-06
-5.86448e-06
4.78399e-07
1.83881e-06
-5.1022e-06
4.86705e-07
2.13464e-06
-4.43141e-06
4.95338e-07
2.44643e-06
-3.83254e-06
5.04785e-07
2.77056e-06
-3.27873e-06
5.1354e-07
3.09629e-06
-2.74015e-06
5.20858e-07
3.43967e-06
-2.18712e-06
5.27088e-07
3.81945e-06
-1.5865e-06
5.29932e-07
4.18361e-06
-8.62812e-07
5.29364e-07
4.47174e-06
-3.69201e-08
5.25636e-07
4.61642e-06
1.00291e-06
5.16004e-07
4.79058e-06
2.04409e-06
4.95023e-07
4.74621e-06
3.49435e-06
4.55718e-07
4.45185e-06
5.20209e-06
3.95661e-07
4.04525e-06
7.20028e-06
3.13668e-07
3.51274e-06
9.75553e-06
2.12999e-07
2.72134e-06
1.27102e-05
1.19042e-07
1.68037e-06
1.49196e-05
5.37119e-08
6.2842e-07
1.48373e-05
3.10335e-08
9.17041e-06
2.99181e-08
-2.19212e-08
-5.1568e-06
7.0801e-08
-5.19224e-08
-1.14307e-05
1.58421e-07
-5.33564e-08
-1.44728e-05
2.13269e-07
-2.80365e-08
-1.56067e-05
2.55963e-07
6.07151e-09
-1.58858e-05
2.91931e-07
4.8746e-08
-1.57444e-05
3.21463e-07
1.07847e-07
-1.53037e-05
3.45669e-07
1.92006e-07
-1.46174e-05
3.67003e-07
3.08199e-07
-1.37364e-05
3.86623e-07
4.60351e-07
-1.27205e-05
4.04541e-07
6.49427e-07
-1.1632e-05
4.20561e-07
8.74082e-07
-1.05264e-05
4.3452e-07
1.13061e-06
-9.44858e-06
4.46399e-07
1.41486e-06
-8.43269e-06
4.56389e-07
1.7229e-06
-7.50109e-06
4.64833e-07
2.05098e-06
-6.66506e-06
4.7217e-07
2.39585e-06
-5.92631e-06
4.78893e-07
2.75615e-06
-5.27758e-06
4.85544e-07
3.13387e-06
-4.7033e-06
4.92707e-07
3.53592e-06
-4.18061e-06
4.99479e-07
3.97034e-06
-3.68072e-06
5.05785e-07
4.44228e-06
-3.17006e-06
5.10592e-07
4.9533e-06
-2.61156e-06
5.13564e-07
5.53961e-06
-1.96144e-06
5.11716e-07
6.10445e-06
-1.10594e-06
5.03539e-07
6.50289e-06
1.18596e-07
4.85224e-07
6.79729e-06
1.28569e-06
4.6323e-07
6.80474e-06
3.06303e-06
4.23011e-07
6.32632e-06
5.31976e-06
3.59941e-07
5.32082e-06
7.93437e-06
2.70708e-07
3.9379e-06
1.09757e-05
1.62157e-07
2.40342e-06
1.41796e-05
6.45267e-08
1.143e-06
1.61677e-05
1.1665e-08
2.61338e-07
1.57239e-05
-5.72063e-09
9.43355e-06
-1.80071e-09
-3.77787e-08
-5.18605e-06
6.65313e-08
-1.00527e-07
-1.15114e-05
1.43052e-07
-1.07358e-07
-1.46532e-05
1.8682e-07
-7.57447e-08
-1.58634e-05
2.24838e-07
-3.08441e-08
-1.61904e-05
2.59435e-07
2.25088e-08
-1.6088e-05
2.89983e-07
8.94531e-08
-1.56869e-05
3.16049e-07
1.7633e-07
-1.50443e-05
3.3981e-07
2.88093e-07
-1.42109e-05
3.62511e-07
4.27357e-07
-1.32441e-05
3.84089e-07
5.94515e-07
-1.22036e-05
4.04162e-07
7.88241e-07
-1.11427e-05
4.22275e-07
1.00543e-06
-1.01041e-05
4.38053e-07
1.24134e-06
-9.12023e-06
4.51376e-07
1.49104e-06
-8.21346e-06
4.62407e-07
1.74985e-06
-7.39567e-06
4.71545e-07
2.01345e-06
-6.66948e-06
4.79346e-07
2.27831e-06
-6.0291e-06
4.86435e-07
2.54254e-06
-5.46128e-06
4.93547e-07
2.80677e-06
-4.9465e-06
5.01467e-07
3.07594e-06
-4.45969e-06
5.09639e-07
3.35737e-06
-3.96957e-06
5.17923e-07
3.65673e-06
-3.43575e-06
5.24669e-07
3.96958e-06
-2.80299e-06
5.28525e-07
4.32414e-06
-1.9851e-06
5.24439e-07
4.7178e-06
-7.82134e-07
5.06909e-07
4.74105e-06
7.85917e-07
4.7638e-07
4.4863e-06
2.89679e-06
4.20876e-07
3.81529e-06
5.65208e-06
3.3862e-07
2.6986e-06
8.83238e-06
2.18631e-07
1.36574e-06
1.22328e-05
7.56918e-08
2.92242e-07
1.53011e-05
-4.80714e-08
-1.8157e-07
1.6745e-05
-1.03383e-07
-2.79529e-07
1.59258e-05
-1.03867e-07
9.2053e-06
-5.12879e-08
-9.0356e-08
-5.15803e-06
6.16699e-08
-1.71339e-07
-1.15511e-05
1.20162e-07
-1.67126e-07
-1.48129e-05
1.55165e-07
-1.12227e-07
-1.61074e-05
1.88795e-07
-4.12349e-08
-1.64832e-05
2.21581e-07
3.38544e-08
-1.64159e-05
2.5263e-07
1.15139e-07
-1.60488e-05
2.80349e-07
2.06536e-07
-1.54425e-05
3.06493e-07
3.11372e-07
-1.46482e-05
3.32174e-07
4.31573e-07
-1.37218e-05
3.57186e-07
5.6718e-07
-1.27206e-05
3.81094e-07
7.16687e-07
-1.16959e-05
4.034e-07
8.77121e-07
-1.06885e-05
4.23643e-07
1.04323e-06
-9.72817e-06
4.41482e-07
1.20843e-06
-8.83584e-06
4.56834e-07
1.36563e-06
-8.0231e-06
4.69886e-07
1.50758e-06
-7.29286e-06
4.81089e-07
1.62731e-06
-6.64025e-06
4.911e-07
1.71851e-06
-6.05352e-06
5.00731e-07
1.77567e-06
-5.5149e-06
5.10921e-07
1.7937e-06
-5.00074e-06
5.22714e-07
1.76814e-06
-4.48052e-06
5.36186e-07
1.69381e-06
-3.91353e-06
5.51769e-07
1.56754e-06
-3.24522e-06
5.68088e-07
1.40108e-06
-2.40305e-06
5.83889e-07
1.31513e-06
-1.28575e-06
5.88913e-07
1.14703e-06
3.82102e-07
5.71197e-07
1.00251e-06
2.51575e-06
5.24843e-07
7.75178e-07
5.43187e-06
4.46851e-07
4.44339e-07
8.83276e-06
3.29836e-07
8.46909e-08
1.24188e-05
1.7317e-07
-1.90179e-07
1.55641e-05
1.1544e-08
-2.29157e-07
1.68866e-05
-1.03002e-07
-1.74906e-07
1.59775e-05
-1.06415e-07
9.06939e-06
-3.9016e-08
-1.20759e-07
-5.09543e-06
5.73399e-08
-1.73983e-07
-1.15977e-05
9.91928e-08
-1.23815e-07
-1.49902e-05
1.26678e-07
-1.98486e-08
-1.63671e-05
1.55373e-07
9.8603e-08
-1.67865e-05
1.84512e-07
2.1629e-07
-1.67476e-05
2.13692e-07
3.35335e-07
-1.64087e-05
2.40532e-07
4.57193e-07
-1.58311e-05
2.6645e-07
5.85382e-07
-1.50692e-05
2.92488e-07
7.22452e-07
-1.41776e-05
3.18376e-07
8.6892e-07
-1.32111e-05
3.43657e-07
1.02369e-06
-1.2219e-05
3.67841e-07
1.18459e-06
-1.12403e-05
3.90475e-07
1.348e-06
-1.03032e-05
4.11186e-07
1.50805e-06
-9.42609e-06
4.29759e-07
1.65757e-06
-8.61926e-06
4.46199e-07
1.7885e-06
-7.88497e-06
4.60754e-07
1.89233e-06
-7.21843e-06
4.73926e-07
1.96051e-06
-6.60855e-06
4.86437e-07
1.98484e-06
-6.0388e-06
4.99181e-07
1.95765e-06
-5.48704e-06
5.13084e-07
1.87213e-06
-4.92415e-06
5.28751e-07
1.72207e-06
-4.31116e-06
5.47262e-07
1.50303e-06
-3.59624e-06
5.69598e-07
1.21455e-06
-2.71394e-06
5.98815e-07
8.83115e-07
-1.58498e-06
6.29952e-07
6.03486e-07
7.24867e-09
6.5364e-07
7.14484e-07
1.75048e-06
6.53429e-07
1.05969e-06
4.48085e-06
6.05111e-07
1.44581e-06
7.93438e-06
5.11691e-07
1.62264e-06
1.18703e-05
3.71138e-07
1.45022e-06
1.55276e-05
2.08482e-07
1.01101e-06
1.72652e-05
6.00981e-08
4.51593e-07
1.65416e-05
-5.37544e-09
9.51395e-06
6.99959e-09
-8.94083e-08
-5.04735e-06
4.05544e-08
-5.4187e-08
-1.17003e-05
6.68034e-08
1.03686e-07
-1.52403e-05
9.17162e-08
3.11583e-07
-1.66931e-05
1.17683e-07
5.28676e-07
-1.71477e-05
1.43781e-07
7.3902e-07
-1.71294e-05
1.71091e-07
9.47235e-07
-1.68143e-05
1.97021e-07
1.15204e-06
-1.62589e-05
2.22592e-07
1.35748e-06
-1.55236e-05
2.48525e-07
1.56681e-06
-1.46618e-05
2.74419e-07
1.78184e-06
-1.37263e-05
2.99727e-07
2.00306e-06
-1.27646e-05
3.23961e-07
2.23028e-06
-1.18148e-05
3.46743e-07
2.46263e-06
-1.09039e-05
3.6781e-07
2.69768e-06
-1.00487e-05
3.87009e-07
2.93109e-06
-9.25753e-06
4.04343e-07
3.15671e-06
-8.5311e-06
4.19972e-07
3.36696e-06
-7.86343e-06
4.34217e-07
3.55362e-06
-7.24328e-06
4.47548e-07
3.70853e-06
-6.65485e-06
4.60604e-07
3.8244e-06
-6.07756e-06
4.74119e-07
3.89581e-06
-5.48502e-06
4.88902e-07
3.9203e-06
-4.84258e-06
5.06329e-07
3.89804e-06
-4.10135e-06
5.2667e-07
3.81705e-06
-3.18745e-06
5.53652e-07
3.64095e-06
-1.99676e-06
5.86922e-07
3.41537e-06
-3.91962e-07
6.23755e-07
3.37842e-06
1.13557e-06
6.50735e-07
3.63191e-06
3.56627e-06
6.59982e-07
3.80772e-06
7.13032e-06
6.2714e-07
3.59402e-06
1.15383e-05
5.44802e-07
2.95734e-06
1.5768e-05
3.95813e-07
1.8714e-06
1.80823e-05
2.68254e-07
7.51813e-07
1.74905e-05
1.69744e-07
1.01671e-05
9.86025e-08
-3.25781e-08
-5.03594e-06
2.03954e-08
1.32833e-07
-1.1902e-05
3.56994e-08
4.12791e-07
-1.55825e-05
6.18345e-08
7.23636e-07
-1.70892e-05
8.48726e-08
1.03308e-06
-1.75637e-05
1.06204e-07
1.32815e-06
-1.75543e-05
1.29456e-07
1.61572e-06
-1.72546e-05
1.52316e-07
1.8943e-06
-1.67133e-05
1.75469e-07
2.16844e-06
-1.59976e-05
1.99483e-07
2.44205e-06
-1.51598e-05
2.23881e-07
2.71799e-06
-1.42508e-05
2.47982e-07
2.99772e-06
-1.33161e-05
2.71199e-07
3.28095e-06
-1.23917e-05
2.9309e-07
3.56694e-06
-1.15039e-05
3.13374e-07
3.85453e-06
-1.06689e-05
3.31933e-07
4.14119e-06
-9.89371e-06
3.48778e-07
4.42267e-06
-9.17744e-06
3.64075e-07
4.69241e-06
-8.51209e-06
3.78108e-07
4.94122e-06
-7.88425e-06
3.91292e-07
5.15766e-06
-7.27638e-06
4.04181e-07
5.32859e-06
-6.667e-06
4.17514e-07
5.44068e-06
-6.03049e-06
4.32287e-07
5.48472e-06
-5.33705e-06
4.49198e-07
5.45834e-06
-4.54672e-06
4.70247e-07
5.3512e-06
-3.57959e-06
4.97349e-07
5.12084e-06
-2.30573e-06
5.3707e-07
4.76117e-06
-6.17879e-07
5.83129e-07
4.391e-06
8.81192e-07
6.21546e-07
4.16906e-06
3.13975e-06
6.44928e-07
3.81568e-06
6.85917e-06
6.21577e-07
3.21336e-06
1.16052e-05
5.33465e-07
2.26147e-06
1.63024e-05
4.15822e-07
1.16452e-06
1.88483e-05
3.28884e-07
3.10448e-07
1.81059e-05
2.35645e-07
1.03496e-05
1.27846e-07
5.53945e-08
-5.08166e-06
-1.03085e-08
4.07458e-07
-1.22582e-05
3.74186e-09
8.5232e-07
-1.60631e-05
3.54445e-08
1.30452e-06
-1.75978e-05
5.6156e-08
1.74499e-06
-1.80777e-05
7.32909e-08
2.16606e-06
-1.80686e-05
9.30218e-08
2.57575e-06
-1.77777e-05
1.13148e-07
2.97388e-06
-1.72455e-05
1.33774e-07
3.3644e-06
-1.65439e-05
1.55387e-07
3.75086e-06
-1.5724e-05
1.77364e-07
4.13741e-06
-1.48367e-05
1.98972e-07
4.5279e-06
-1.39267e-05
2.19629e-07
4.92176e-06
-1.30249e-05
2.38884e-07
5.31732e-06
-1.21564e-05
2.56432e-07
5.7134e-06
-1.13376e-05
2.72124e-07
6.1087e-06
-1.05755e-05
2.8592e-07
6.50071e-06
-9.86792e-06
2.97867e-07
6.88461e-06
-9.20476e-06
3.08144e-07
7.25189e-06
-8.56922e-06
3.17016e-07
7.58919e-06
-7.9392e-06
3.24808e-07
7.87682e-06
-7.28733e-06
3.31922e-07
8.08939e-06
-6.58261e-06
3.38706e-07
8.20104e-06
-5.79769e-06
3.48029e-07
8.18936e-06
-4.89733e-06
3.61157e-07
7.96491e-06
-3.73828e-06
3.81682e-07
7.44415e-06
-2.20921e-06
4.22612e-07
6.31426e-06
1.1795e-08
4.98625e-07
5.17023e-06
1.44888e-06
5.74486e-07
4.06111e-06
3.58875e-06
6.57787e-07
3.32412e-06
6.90719e-06
6.86458e-07
2.71971e-06
1.15886e-05
6.18906e-07
1.94424e-06
1.65994e-05
4.77233e-07
1.28073e-06
1.9195e-05
3.15271e-07
6.79419e-07
1.85001e-05
2.04572e-07
1.08939e-05
1.34981e-07
2.98427e-07
-5.33473e-06
-4.57452e-08
9.29608e-07
-1.2871e-05
-1.86329e-08
1.56645e-06
-1.67197e-05
1.9543e-08
2.1651e-06
-1.82302e-05
3.35665e-08
2.73753e-06
-1.86928e-05
4.25029e-08
3.28818e-06
-1.86752e-05
5.57609e-08
3.82461e-06
-1.83855e-05
7.12054e-08
4.34979e-06
-1.78589e-05
8.79678e-08
4.86796e-06
-1.71686e-05
1.06265e-07
5.3854e-06
-1.63668e-05
1.25072e-07
5.91507e-06
-1.55102e-05
1.43491e-07
6.47544e-06
-1.46483e-05
1.60891e-07
7.07129e-06
-1.37979e-05
1.76673e-07
7.70356e-06
-1.29797e-05
1.90514e-07
8.37337e-06
-1.22102e-05
2.02169e-07
9.08063e-06
-1.14948e-05
2.11386e-07
9.82409e-06
-1.08299e-05
2.17839e-07
1.06015e-05
-1.02041e-05
2.21158e-07
1.14085e-05
-9.59798e-06
2.2093e-07
1.22354e-05
-8.98376e-06
2.16699e-07
1.30597e-05
-8.32094e-06
2.08135e-07
1.38471e-05
-7.56674e-06
1.95398e-07
1.45883e-05
-6.71734e-06
1.76958e-07
1.49322e-05
-5.39135e-06
1.48346e-07
1.47986e-05
-3.73236e-06
1.24981e-07
1.34984e-05
-1.04578e-06
1.33893e-07
1.22382e-05
1.09478e-06
1.74611e-07
1.05071e-05
2.9232e-06
2.53667e-07
8.66926e-06
5.00409e-06
4.19063e-07
7.57728e-06
7.39309e-06
6.02776e-07
6.88046e-06
1.16438e-05
6.38403e-07
5.99466e-06
1.68917e-05
5.90812e-07
4.17292e-06
2.05208e-05
4.93427e-07
1.92068e-06
2.03545e-05
3.94558e-07
1.26018e-05
2.12647e-07
6.32786e-07
-5.90181e-06
-6.57759e-08
1.46585e-06
-1.36994e-05
-4.73987e-09
2.19365e-06
-1.74838e-05
3.62392e-08
2.85156e-06
-1.89276e-05
3.94467e-08
3.47977e-06
-1.93601e-05
3.90408e-08
4.0932e-06
-1.93342e-05
4.5482e-08
4.69466e-06
-1.90432e-05
5.61926e-08
5.29141e-06
-1.85253e-05
6.95261e-08
5.88501e-06
-1.78472e-05
8.49882e-08
6.4819e-06
-1.70648e-05
1.01044e-07
7.10331e-06
-1.62484e-05
1.1661e-07
7.8009e-06
-1.54772e-05
1.31129e-07
8.58978e-06
-1.47305e-05
1.43558e-07
9.46371e-06
-1.40075e-05
1.53757e-07
1.04324e-05
-1.33407e-05
1.61575e-07
1.15041e-05
-1.27333e-05
1.66625e-07
1.26832e-05
-1.21775e-05
1.68273e-07
1.39715e-05
-1.16583e-05
1.65561e-07
1.53693e-05
-1.11532e-05
1.57032e-07
1.68707e-05
-1.0626e-05
1.40449e-07
1.84475e-05
-1.00113e-05
1.12954e-07
1.99663e-05
-9.15676e-06
7.05599e-08
2.09726e-05
-7.73468e-06
1.02906e-08
2.12754e-05
-5.62093e-06
-7.44729e-08
2.07378e-05
-3.02834e-06
-1.67698e-07
1.94353e-05
5.72851e-07
-3.17291e-07
1.85251e-05
2.3973e-06
-3.93832e-07
1.68745e-05
5.00038e-06
-4.28473e-07
1.47498e-05
7.50862e-06
-3.81917e-07
1.21093e-05
1.0246e-05
-2.14559e-07
9.28363e-06
1.43667e-05
1.00812e-07
6.24604e-06
1.95658e-05
3.61917e-07
3.51763e-06
2.28282e-05
4.18773e-07
1.2271e-06
2.23378e-05
3.04392e-07
1.37726e-05
5.63579e-08
6.64039e-07
-6.52176e-06
-4.38425e-08
1.3054e-06
-1.43884e-05
4.78305e-08
1.8139e-06
-1.80701e-05
7.79625e-08
2.3006e-06
-1.94801e-05
6.59505e-08
2.79019e-06
-1.99057e-05
5.60459e-08
3.2856e-06
-1.98867e-05
5.72108e-08
3.77772e-06
-1.96017e-05
6.64311e-08
4.27405e-06
-1.91022e-05
8.07715e-08
4.77867e-06
-1.84502e-05
9.84921e-08
5.29498e-06
-1.76985e-05
1.17512e-07
5.81601e-06
-1.69055e-05
1.36252e-07
6.32755e-06
-1.61424e-05
1.53896e-07
6.84376e-06
-1.54161e-05
1.69582e-07
7.42112e-06
-1.47671e-05
1.82326e-07
8.07677e-06
-1.41899e-05
1.93739e-07
8.82456e-06
-1.36845e-05
2.03527e-07
9.67588e-06
-1.32401e-05
2.11414e-07
1.06393e-05
-1.28384e-05
2.16816e-07
1.17191e-05
-1.24508e-05
2.18037e-07
1.29074e-05
-1.20251e-05
2.10892e-07
1.41548e-05
-1.14456e-05
1.87057e-07
1.52476e-05
-1.03827e-05
1.33355e-07
1.55748e-05
-8.05725e-06
-4.38667e-09
1.48344e-05
-4.68958e-06
-1.90309e-07
1.34974e-05
-1.24283e-06
-4.47879e-07
1.23519e-05
2.44765e-06
-7.28964e-07
1.05888e-05
5.07561e-06
-9.14878e-07
8.64611e-06
8.02562e-06
-1.08235e-06
6.10653e-06
1.118e-05
-1.13167e-06
2.6848e-06
1.46653e-05
-9.97412e-07
-7.23409e-07
1.84442e-05
-6.69163e-07
-2.91688e-06
2.21644e-05
-4.05064e-07
-3.12414e-06
2.3297e-05
-2.61059e-07
-1.96795e-06
2.14523e-05
-2.70327e-07
1.21254e-05
-3.20755e-07
4.48387e-07
-6.98226e-06
1.25951e-08
7.35082e-07
-1.47972e-05
1.22435e-07
9.5074e-07
-1.84194e-05
1.33878e-07
1.19517e-06
-1.98331e-05
1.08845e-07
1.46561e-06
-2.02677e-05
9.18284e-08
1.75576e-06
-2.02654e-05
8.88094e-08
2.04855e-06
-1.9991e-05
9.67725e-08
2.35034e-06
-1.95155e-05
1.11689e-07
2.66851e-06
-1.88991e-05
1.31023e-07
3.0017e-06
-1.81833e-05
1.51935e-07
3.33999e-06
-1.74144e-05
1.70908e-07
3.62944e-06
-1.66158e-05
1.84289e-07
3.87007e-06
-1.58522e-05
1.95863e-07
4.0457e-06
-1.51622e-05
2.1993e-07
4.1695e-06
-1.45567e-05
2.43433e-07
4.24799e-06
-1.40295e-05
2.66986e-07
4.28555e-06
-1.35686e-05
2.91379e-07
4.28315e-06
-1.31531e-05
3.17422e-07
4.23389e-06
-1.27463e-05
3.45038e-07
4.1059e-06
-1.22679e-05
3.71067e-07
3.78026e-06
-1.15079e-05
3.88276e-07
2.9871e-06
-9.98206e-06
3.92875e-07
1.65413e-06
-7.04362e-06
3.19653e-07
-1.78117e-07
-2.83118e-06
-2.57971e-08
-1.48981e-06
4.38054e-07
-3.68838e-07
-3.25561e-06
4.80064e-06
-5.86985e-07
-5.43891e-06
8.00409e-06
-7.45142e-07
-7.5156e-06
1.09603e-05
-8.58124e-07
-9.39055e-06
1.39844e-05
-9.29679e-07
-1.08085e-05
1.70032e-05
-9.20401e-07
-1.11869e-05
1.96587e-05
-8.36672e-07
-9.64419e-06
2.13245e-05
-7.03306e-07
-7.14379e-06
2.13919e-05
-5.95584e-07