/*--------------------------------*- C++ -*----------------------------------*\
| =========                 |                                                 |
| \\      /  F ield         | OpenFOAM: The Open Source CFD Toolbox           |
|  \\    /   O peration     | Version:  2.0.x                                 |
|   \\  /    A nd           | Web:      www.OpenFOAM.org                      |
|    \\/     M anipulation  |                                                 |
\*---------------------------------------------------------------------------*/
FoamFile
{
    version     2.0;
    format      ascii;
    class       volScalarField;
    location    "200";
    object      T;
}
// * * * * * * * * * * * * * * * * * * * * * * * * * * * * * * * * * * * * * //

dimensions      [0 0 0 1 0 0 0];

internalField   nonuniform List<scalar> 
78750
(
288.35
288.652
288.879
289.086
289.27
289.436
289.587
289.722
289.846
289.958
290.056
290.142
290.218
290.284
290.342
290.388
290.427
290.453
290.471
290.479
290.476
290.475
290.473
290.47
290.467
290.463
290.458
290.452
290.446
290.437
290.438
290.469
290.894
293.608
301.602
288.31
288.631
288.956
289.284
289.599
289.896
290.175
290.434
290.676
290.899
291.101
291.286
291.449
291.593
291.712
291.797
291.857
291.893
291.904
291.903
291.885
291.841
291.764
291.664
291.546
291.416
291.272
291.123
290.973
290.817
290.66
290.647
291.092
294.136
301.906
288.424
288.993
289.556
290.069
290.496
290.849
291.157
291.439
291.691
291.908
292.085
292.214
292.292
292.321
292.32
292.311
292.297
292.277
292.241
292.179
292.088
291.975
291.85
291.722
291.592
291.46
291.325
291.183
291.04
290.934
290.959
291.384
292.864
296.331
303.033
288.531
289.287
289.936
290.402
290.739
291.024
291.292
291.548
291.788
292.001
292.172
292.285
292.343
292.342
292.296
292.223
292.146
292.072
292.004
291.935
291.86
291.776
291.682
291.581
291.473
291.362
291.257
291.169
291.112
291.164
291.477
292.379
294.331
297.81
303.767
288.571
289.368
290.015
290.479
290.83
291.138
291.423
291.69
291.929
292.136
292.306
292.434
292.494
292.488
292.424
292.32
292.199
292.078
291.966
291.86
291.758
291.66
291.564
291.472
291.385
291.309
291.251
291.222
291.29
291.514
292.067
293.269
295.449
298.887
304.296
288.593
289.409
290.056
290.508
290.849
291.15
291.433
291.697
291.936
292.142
292.311
292.446
292.542
292.59
292.59
292.54
292.445
292.32
292.182
292.046
291.916
291.791
291.672
291.562
291.465
291.388
291.353
291.393
291.548
291.916
292.678
294.111
296.395
299.715
304.674
288.595
289.411
290.058
290.51
290.851
291.15
291.432
291.698
291.936
292.14
292.311
292.448
292.56
292.645
292.697
292.717
292.704
292.655
292.58
292.485
292.378
292.264
292.146
292.029
291.918
291.819
291.75
291.743
291.861
292.236
293.053
294.566
296.879
300.127
304.853
288.596
289.413
290.059
290.511
290.851
291.15
291.431
291.693
291.928
292.133
292.306
292.447
292.561
292.653
292.724
292.775
292.805
292.815
292.803
292.769
292.714
292.644
292.563
292.474
292.382
292.294
292.223
292.196
292.257
292.544
293.266
294.722
297.049
300.301
304.927
288.596
289.412
290.058
290.51
290.851
291.146
291.42
291.675
291.907
292.113
292.289
292.435
292.556
292.653
292.731
292.791
292.836
292.869
292.889
292.898
292.893
292.871
292.835
292.785
292.729
292.674
292.636
292.638
292.728
293.042
293.802
295.305
297.625
300.777
305.139
288.595
289.41
290.055
290.508
290.847
291.143
291.418
291.674
291.908
292.112
292.289
292.436
292.556
292.655
292.735
292.799
292.851
292.89
292.921
292.944
292.96
292.968
292.967
292.956
292.935
292.916
292.919
292.978
293.188
293.676
294.627
296.234
298.441
301.344
305.384
288.594
289.406
290.053
290.508
290.848
291.141
291.411
291.661
291.89
292.094
292.271
292.422
292.548
292.65
292.733
292.8
292.854
292.897
292.932
292.961
292.985
293.006
293.022
293.033
293.038
293.04
293.055
293.124
293.339
293.836
294.791
296.391
298.56
301.411
305.393
288.591
289.399
290.045
290.505
290.846
291.137
291.404
291.653
291.883
292.088
292.266
292.418
292.545
292.649
292.734
292.804
292.86
292.906
292.943
292.975
293.004
293.03
293.056
293.08
293.103
293.124
293.144
293.185
293.331
293.737
294.614
296.201
298.447
301.374
305.371
288.591
289.399
290.045
290.504
290.845
291.135
291.402
291.652
291.881
292.086
292.264
292.416
292.543
292.648
292.734
292.806
292.866
292.915
292.955
292.99
293.021
293.052
293.085
293.122
293.165
293.217
293.277
293.352
293.476
293.795
294.608
296.201
298.487
301.448
305.427
288.591
289.397
290.043
290.505
290.846
291.136
291.402
291.651
291.878
292.081
292.259
292.411
292.539
292.646
292.734
292.806
292.867
292.919
292.963
293.002
293.037
293.072
293.11
293.157
293.223
293.32
293.465
293.68
294.014
294.581
295.589
297.271
299.391
302.045
305.69
288.588
289.389
290.035
290.502
290.846
291.135
291.399
291.642
291.865
292.065
292.242
292.395
292.525
292.634
292.725
292.801
292.865
292.919
292.965
293.006
293.044
293.081
293.121
293.17
293.238
293.35
293.543
293.845
294.309
295.032
296.166
297.834
299.798
302.275
305.768
288.584
289.378
290.023
290.494
290.841
291.129
291.39
291.632
291.855
292.056
292.233
292.386
292.516
292.625
292.716
292.793
292.858
292.915
292.964
293.008
293.049
293.089
293.13
293.176
293.232
293.314
293.452
293.7
294.132
294.848
295.979
297.637
299.608
302.117
305.69
288.579
289.364
290.006
290.48
290.83
291.122
291.384
291.626
291.848
292.047
292.223
292.376
292.506
292.615
292.708
292.786
292.852
292.91
292.961
293.009
293.054
293.098
293.143
293.191
293.248
293.32
293.423
293.588
293.894
294.477
295.526
297.203
299.314
301.965
305.614
288.572
289.348
289.989
290.464
290.816
291.109
291.373
291.615
291.836
292.035
292.212
292.366
292.497
292.608
292.702
292.781
292.849
292.91
292.964
293.014
293.063
293.112
293.163
293.217
293.279
293.357
293.47
293.65
293.961
294.541
295.583
297.285
299.439
302.096
305.684
288.565
289.332
289.97
290.445
290.8
291.095
291.36
291.604
291.827
292.028
292.207
292.363
292.497
292.611
292.708
292.79
292.859
292.918
292.971
293.023
293.075
293.13
293.19
293.255
293.321
293.387
293.47
293.626
293.956
294.574
295.668
297.397
299.513
302.11
305.682
288.56
289.321
289.958
290.432
290.786
291.08
291.345
291.588
291.811
292.014
292.195
292.354
292.492
292.611
292.709
292.791
292.862
292.925
292.984
293.042
293.103
293.173
293.254
293.347
293.443
293.514
293.555
293.614
293.752
294.181
295.2
296.964
299.164
301.845
305.512
288.565
289.347
289.995
290.47
290.824
291.12
291.386
291.629
291.853
292.054
292.233
292.388
292.521
292.634
292.731
292.814
292.888
292.955
293.022
293.093
293.178
293.284
293.43
293.62
293.814
293.902
293.962
293.994
293.991
294.092
294.778
296.487
298.905
301.784
305.507
288.578
289.378
290.027
290.496
290.846
291.141
291.407
291.651
291.875
292.079
292.26
292.416
292.55
292.664
292.762
292.847
292.924
293
293.084
293.186
293.325
293.549
293.944
294.431
294.786
294.857
294.779
294.507
294.276
294.333
295.202
297.15
299.5
302.199
305.749
288.596
289.415
290.07
290.539
290.888
291.182
291.448
291.693
291.917
292.118
292.297
292.452
292.583
292.695
292.79
292.874
292.952
293.03
293.121
293.248
293.461
293.897
294.711
295.623
296.1
296.137
296.049
295.982
296.108
296.68
297.859
299.531
301.387
303.592
306.354
288.607
289.432
290.088
290.562
290.915
291.21
291.476
291.721
291.944
292.144
292.319
292.472
292.602
292.712
292.807
292.89
292.967
293.043
293.133
293.271
293.551
294.15
295.17
296.339
297.132
297.396
297.566
297.819
298.263
298.999
300.04
301.267
302.687
304.481
306.647
288.612
289.439
290.093
290.566
290.918
291.212
291.478
291.723
291.946
292.145
292.319
292.467
292.592
292.699
292.79
292.871
292.945
293.014
293.082
293.151
293.239
293.415
293.885
294.916
296.302
297.331
297.904
298.389
298.971
299.716
300.621
301.644
302.883
304.545
306.636
288.607
289.419
290.065
290.541
290.896
291.19
291.457
291.701
291.922
292.119
292.291
292.439
292.566
292.674
292.768
292.85
292.925
292.994
293.062
293.132
293.206
293.287
293.393
293.607
294.172
295.272
296.625
297.688
298.558
299.415
300.327
301.298
302.446
304.053
306.368
288.592
289.387
290.034
290.518
290.878
291.178
291.444
291.687
291.907
292.104
292.276
292.424
292.55
292.658
292.751
292.833
292.908
292.978
293.046
293.115
293.186
293.264
293.349
293.447
293.569
293.775
294.264
295.212
296.218
297.276
298.414
299.658
301.027
302.882
305.875
288.584
289.369
290.015
290.508
290.875
291.176
291.445
291.69
291.911
292.107
292.277
292.423
292.548
292.654
292.746
292.828
292.903
292.974
293.043
293.112
293.183
293.259
293.342
293.434
293.535
293.652
293.816
294.112
294.682
295.57
296.774
298.292
300.024
302.251
305.637
288.575
289.352
290.006
290.502
290.875
291.181
291.453
291.699
291.921
292.116
292.285
292.43
292.554
292.66
292.752
292.835
292.912
292.985
293.057
293.131
293.208
293.29
293.38
293.477
293.578
293.682
293.801
293.974
294.284
294.89
295.967
297.568
299.538
302.001
305.534
288.572
289.351
290.009
290.516
290.895
291.207
291.485
291.736
291.961
292.158
292.327
292.47
292.59
292.692
292.781
292.862
292.938
293.013
293.089
293.17
293.257
293.352
293.455
293.562
293.668
293.772
293.881
294.01
294.21
294.601
295.455
297.027
299.201
301.847
305.448
288.573
289.362
290.034
290.55
290.936
291.255
291.538
291.793
292.019
292.214
292.381
292.521
292.638
292.738
292.825
292.906
292.985
293.066
293.152
293.246
293.352
293.472
293.599
293.726
293.848
293.96
294.066
294.179
294.317
294.574
295.193
296.583
298.834
301.608
305.318
288.575
289.376
290.058
290.576
290.965
291.289
291.577
291.837
292.065
292.262
292.428
292.567
292.684
292.783
292.872
292.957
293.044
293.138
293.243
293.367
293.512
293.673
293.835
293.99
294.131
294.259
294.377
294.484
294.583
294.739
295.163
296.238
298.34
301.151
305.074
288.586
289.412
290.11
290.629
291.018
291.345
291.637
291.9
292.13
292.327
292.492
292.629
292.743
292.843
292.935
293.028
293.129
293.248
293.394
293.578
293.794
294.02
294.236
294.428
294.599
294.743
294.86
294.958
295.05
295.14
295.341
296.183
298.09
300.898
304.91
288.605
289.465
290.176
290.692
291.08
291.409
291.704
291.967
292.196
292.391
292.553
292.687
292.8
292.901
292.999
293.106
293.233
293.399
293.625
293.915
294.245
294.566
294.847
295.076
295.251
295.392
295.513
295.614
295.699
295.79
295.938
296.468
298.123
300.902
304.971
288.626
289.522
290.245
290.76
291.146
291.475
291.77
292.03
292.255
292.446
292.603
292.732
292.842
292.944
293.05
293.173
293.336
293.569
293.898
294.344
294.813
295.195
295.472
295.679
295.854
296.015
296.164
296.304
296.445
296.629
296.993
297.828
299.299
301.584
305.333
288.654
289.58
290.301
290.806
291.188
291.515
291.805
292.061
292.283
292.47
292.623
292.749
292.856
292.955
293.062
293.192
293.372
293.652
294.119
294.755
295.361
295.785
296.075
296.295
296.494
296.694
296.907
297.148
297.44
297.85
298.493
299.464
300.727
302.616
305.833
288.667
289.598
290.314
290.814
291.193
291.519
291.81
292.066
292.287
292.472
292.625
292.751
292.858
292.955
293.054
293.178
293.359
293.661
294.173
294.872
295.611
296.206
296.606
296.913
297.186
297.457
297.758
298.116
298.567
299.153
299.905
300.799
301.885
303.534
306.222
288.674
289.607
290.321
290.819
291.195
291.52
291.809
292.066
292.287
292.472
292.623
292.745
292.848
292.94
293.033
293.14
293.286
293.527
293.966
294.712
295.661
296.463
297.035
297.465
297.83
298.178
298.557
299
299.533
300.168
300.892
301.683
302.665
304.193
306.476
288.674
289.604
290.313
290.807
291.18
291.499
291.784
292.036
292.254
292.438
292.59
292.715
292.818
292.906
292.989
293.075
293.18
293.336
293.613
294.141
295.021
296.058
296.922
297.568
298.081
298.535
298.991
299.492
300.058
300.695
301.38
302.108
303.024
304.452
306.556
288.669
289.587
290.292
290.785
291.157
291.476
291.762
292.017
292.238
292.424
292.578
292.703
292.808
292.898
292.982
293.065
293.157
293.272
293.444
293.75
294.339
295.282
296.35
297.298
298.017
298.572
299.105
299.659
300.253
300.887
301.547
302.242
303.115
304.49
306.561
288.662
289.57
290.272
290.767
291.138
291.455
291.739
291.991
292.21
292.395
292.549
292.674
292.777
292.864
292.944
293.021
293.103
293.196
293.314
293.491
293.809
294.403
295.356
296.443
297.435
298.283
298.985
299.626
300.25
300.891
301.554
302.248
303.113
304.484
306.541
288.647
289.535
290.234
290.732
291.106
291.425
291.71
291.966
292.188
292.377
292.533
292.661
292.766
292.857
292.938
293.016
293.098
293.19
293.301
293.441
293.63
293.953
294.551
295.47
296.53
297.515
298.383
299.18
299.963
300.726
301.462
302.196
303.073
304.422
306.509
288.641
289.523
290.222
290.722
291.098
291.417
291.704
291.959
292.182
292.371
292.526
292.654
292.761
292.852
292.934
293.013
293.095
293.189
293.3
293.437
293.61
293.834
294.181
294.846
295.831
296.921
297.955
298.869
299.694
300.474
301.229
301.98
302.866
304.23
306.424
288.632
289.508
290.213
290.716
291.092
291.412
291.699
291.955
292.178
292.369
292.53
292.66
292.767
292.857
292.938
293.017
293.103
293.202
293.322
293.468
293.636
293.826
294.06
294.407
295.026
295.946
297.077
298.233
299.296
300.248
301.117
301.932
302.829
304.177
306.392
288.625
289.497
290.208
290.721
291.105
291.431
291.721
291.979
292.203
292.392
292.547
292.674
292.779
292.871
292.957
293.045
293.144
293.265
293.419
293.61
293.815
294.002
294.161
294.339
294.624
295.116
295.942
297.08
298.355
299.607
300.723
301.672
302.63
304.007
306.321
288.632
289.523
290.234
290.737
291.115
291.439
291.728
291.985
292.209
292.399
292.557
292.689
292.799
292.896
292.99
293.092
293.216
293.382
293.609
293.886
294.151
294.353
294.495
294.612
294.756
295.022
295.49
296.25
297.327
298.591
299.854
301
302.114
303.622
306.177
288.64
289.548
290.268
290.773
291.153
291.478
291.769
292.027
292.25
292.439
292.595
292.723
292.83
292.929
293.032
293.154
293.321
293.571
293.933
294.344
294.666
294.848
294.941
295.01
295.087
295.205
295.484
296.044
296.928
298.111
299.449
300.741
301.943
303.506
306.151
288.648
289.565
290.283
290.786
291.167
291.494
291.787
292.048
292.274
292.463
292.618
292.744
292.852
292.952
293.064
293.211
293.436
293.81
294.369
294.928
295.279
295.428
295.485
295.522
295.558
295.615
295.741
296.097
296.93
298.111
299.462
300.745
301.946
303.528
306.168
288.669
289.602
290.311
290.8
291.173
291.498
291.791
292.053
292.279
292.469
292.625
292.753
292.862
292.966
293.083
293.244
293.502
293.946
294.627
295.401
295.933
296.157
296.244
296.297
296.354
296.452
296.649
297.034
297.715
298.791
300.022
301.127
302.277
303.924
306.39
288.675
289.607
290.313
290.801
291.174
291.496
291.785
292.042
292.265
292.455
292.611
292.738
292.843
292.934
293.03
293.158
293.378
293.806
294.579
295.615
296.43
296.887
297.107
297.248
297.386
297.581
297.897
298.395
299.109
300.012
300.957
301.861
302.916
304.463
306.599
288.675
289.596
290.289
290.768
291.132
291.448
291.734
291.993
292.22
292.413
292.573
292.704
292.811
292.902
292.988
293.084
293.224
293.487
294.024
294.977
296.122
296.994
297.53
297.883
298.173
298.48
298.862
299.363
299.998
300.729
301.478
302.25
303.219
304.669
306.654
288.666
289.569
290.256
290.733
291.095
291.407
291.689
291.943
292.167
292.36
292.524
292.658
292.769
292.861
292.94
293.013
293.091
293.202
293.427
293.943
294.932
296.164
297.182
297.864
298.321
298.748
299.209
299.734
300.328
300.963
301.617
302.323
303.241
304.657
306.633
288.653
289.535
290.214
290.69
291.047
291.353
291.631
291.883
292.108
292.303
292.468
292.607
292.722
292.818
292.9
292.974
293.045
293.119
293.208
293.366
293.747
294.592
295.793
296.961
297.918
298.622
299.184
299.729
300.326
300.96
301.614
302.317
303.226
304.629
306.607
288.639
289.503
290.182
290.664
291.023
291.327
291.602
291.85
292.071
292.264
292.429
292.569
292.685
292.782
292.866
292.94
293.012
293.085
293.165
293.258
293.388
293.653
294.286
295.337
296.551
297.625
298.555
299.356
300.085
300.793
301.496
302.213
303.094
304.461
306.521
288.629
289.483
290.163
290.652
291.017
291.323
291.598
291.847
292.068
292.26
292.423
292.56
292.674
292.77
292.851
292.923
292.991
293.06
293.134
293.22
293.324
293.46
293.671
294.133
295.036
296.189
297.323
298.363
299.291
300.129
300.922
301.714
302.647
304.07
306.356
288.615
289.456
290.142
290.644
291.012
291.321
291.596
291.845
292.066
292.259
292.422
292.559
292.673
292.768
292.848
292.92
292.988
293.056
293.129
293.213
293.315
293.442
293.606
293.816
294.178
294.949
296.017
297.261
298.518
299.672
300.693
301.616
302.583
304.005
306.325
288.607
289.444
290.133
290.642
291.019
291.335
291.618
291.872
292.095
292.288
292.451
292.584
292.694
292.784
292.861
292.929
292.993
293.06
293.134
293.221
293.328
293.463
293.622
293.785
293.958
294.214
294.743
295.678
296.979
298.458
299.904
301.141
302.26
303.732
306.215
288.603
289.439
290.133
290.641
291.019
291.335
291.618
291.872
292.097
292.291
292.454
292.589
292.7
292.792
292.871
292.942
293.011
293.085
293.168
293.271
293.406
293.59
293.816
294.033
294.192
294.309
294.486
294.837
295.533
296.701
298.213
299.782
301.219
302.974
305.888
288.603
289.447
290.142
290.65
291.029
291.347
291.629
291.882
292.105
292.299
292.463
292.601
292.715
292.809
292.889
292.962
293.036
293.118
293.218
293.349
293.544
293.838
294.187
294.489
294.673
294.778
294.827
294.922
295.261
295.998
297.357
299.164
300.83
302.734
305.826
288.61
289.466
290.16
290.661
291.036
291.351
291.633
291.888
292.112
292.306
292.472
292.607
292.722
292.818
292.902
292.978
293.057
293.148
293.269
293.451
293.76
294.245
294.77
295.157
295.353
295.46
295.491
295.481
295.516
296.035
297.376
299.238
300.895
302.77
305.873
288.62
289.482
290.173
290.669
291.041
291.355
291.635
291.887
292.112
292.307
292.471
292.61
292.723
292.818
292.902
292.981
293.063
293.16
293.29
293.495
293.86
294.475
295.275
295.893
296.224
296.416
296.532
296.662
296.948
297.634
298.928
300.463
301.859
303.598
306.265
288.632
289.502
290.19
290.68
291.049
291.361
291.64
291.892
292.115
292.308
292.471
292.608
292.72
292.814
292.896
292.971
293.047
293.132
293.247
293.438
293.813
294.519
295.499
296.376
296.98
297.377
297.687
298.033
298.546
299.361
300.447
301.537
302.689
304.285
306.529
288.635
289.508
290.198
290.688
291.053
291.362
291.639
291.889
292.11
292.301
292.463
292.598
292.71
292.804
292.886
292.961
293.037
293.118
293.215
293.348
293.571
294.023
294.872
295.987
296.954
297.638
298.207
298.765
299.409
300.2
301.086
301.962
302.975
304.461
306.567
288.635
289.506
290.199
290.694
291.062
291.372
291.649
291.897
292.116
292.305
292.464
292.597
292.708
292.8
292.88
292.953
293.026
293.105
293.196
293.31
293.465
293.71
294.195
295.085
296.228
297.301
298.141
298.831
299.562
300.371
301.212
302.032
302.997
304.461
306.557
288.632
289.499
290.194
290.693
291.066
291.378
291.657
291.907
292.126
292.314
292.472
292.602
292.71
292.8
292.879
292.952
293.024
293.101
293.191
293.304
293.453
293.651
293.932
294.44
295.313
296.407
297.469
298.456
299.36
300.252
301.124
301.953
302.909
304.35
306.487
288.624
289.483
290.179
290.685
291.061
291.375
291.655
291.904
292.124
292.313
292.472
292.605
292.714
292.805
292.883
292.953
293.024
293.101
293.191
293.304
293.451
293.648
293.899
294.229
294.8
295.715
296.792
297.895
298.937
299.915
300.84
301.717
302.701
304.163
306.412
288.617
289.471
290.166
290.671
291.05
291.365
291.644
291.895
292.116
292.306
292.468
292.602
292.712
292.805
292.884
292.957
293.03
293.111
293.207
293.33
293.496
293.706
293.935
294.18
294.507
295.047
295.898
297.03
298.289
299.524
300.653
301.643
302.654
304.096
306.378
288.615
289.468
290.168
290.677
291.053
291.373
291.658
291.911
292.132
292.322
292.482
292.614
292.724
292.815
292.895
292.969
293.046
293.132
293.238
293.381
293.585
293.855
294.135
294.363
294.56
294.828
295.284
296.077
297.223
298.575
299.927
301.102
302.226
303.757
306.242
288.616
289.474
290.173
290.678
291.052
291.373
291.661
291.919
292.143
292.336
292.498
292.631
292.74
292.83
292.908
292.982
293.058
293.148
293.266
293.437
293.697
294.057
294.424
294.678
294.829
294.969
295.214
295.681
296.489
297.696
299.157
300.592
301.891
303.517
306.161
288.62
289.483
290.179
290.682
291.06
291.378
291.665
291.922
292.147
292.34
292.501
292.633
292.741
292.832
292.91
292.983
293.059
293.15
293.269
293.451
293.76
294.233
294.755
295.089
295.237
295.314
295.398
295.691
296.409
297.571
299.074
300.559
301.88
303.516
306.169
288.626
289.489
290.183
290.684
291.06
291.38
291.666
291.922
292.148
292.34
292.501
292.633
292.742
292.833
292.912
292.986
293.061
293.149
293.267
293.456
293.786
294.312
294.978
295.584
295.93
296.109
296.216
296.386
296.879
297.943
299.411
300.818
302.115
303.781
306.318
288.625
289.487
290.179
290.68
291.055
291.373
291.658
291.915
292.141
292.334
292.495
292.627
292.734
292.824
292.902
292.973
293.045
293.123
293.218
293.349
293.572
294.043
294.848
295.774
296.483
296.959
297.315
297.7
298.299
299.258
300.446
301.55
302.696
304.282
306.516
288.626
289.487
290.179
290.679
291.055
291.374
291.661
291.918
292.143
292.335
292.495
292.627
292.733
292.822
292.899
292.969
293.041
293.12
293.214
293.337
293.511
293.78
294.312
295.226
296.268
297.084
297.73
298.344
299.067
299.957
300.937
301.853
302.872
304.375
306.532
288.618
289.472
290.17
290.675
291.053
291.374
291.663
291.92
292.144
292.334
292.493
292.624
292.731
292.82
292.897
292.968
293.04
293.119
293.213
293.336
293.504
293.734
294.028
294.541
295.498
296.634
297.643
298.359
299.128
300.022
300.969
301.86
302.868
304.362
306.511
288.613
289.466
290.167
290.681
291.067
291.393
291.684
291.942
292.166
292.355
292.511
292.637
292.741
292.826
292.901
292.97
293.04
293.118
293.214
293.339
293.513
293.732
293.958
294.177
294.495
295.102
296.05
297.312
298.505
299.609
300.634
301.568
302.555
303.994
306.305
288.621
289.497
290.208
290.719
291.103
291.429
291.72
291.977
292.198
292.384
292.538
292.663
292.765
292.851
292.927
293
293.079
293.172
293.294
293.473
293.747
294.093
294.403
294.59
294.7
294.95
295.481
296.424
297.656
298.989
300.265
301.361
302.436
303.933
306.304
288.628
289.518
290.234
290.747
291.132
291.459
291.75
292.009
292.231
292.418
292.571
292.694
292.795
292.88
292.957
293.035
293.125
293.243
293.421
293.72
294.201
294.75
295.18
295.365
295.426
295.487
295.8
296.595
297.802
299.151
300.388
301.436
302.52
304.066
306.401
288.646
289.546
290.259
290.766
291.149
291.475
291.766
292.024
292.246
292.432
292.584
292.706
292.806
292.89
292.97
293.053
293.152
293.289
293.511
293.915
294.591
295.452
296.116
296.435
296.61
296.817
297.233
297.972
298.962
300.026
301.03
301.963
303.034
304.565
306.638
288.649
289.549
290.261
290.768
291.15
291.476
291.767
292.025
292.247
292.433
292.585
292.708
292.808
292.891
292.966
293.041
293.129
293.251
293.46
293.872
294.632
295.681
296.585
297.171
297.549
297.903
298.373
299.04
299.872
300.742
301.555
302.359
303.36
304.814
306.719
288.65
289.544
290.249
290.753
291.134
291.459
291.75
292.008
292.231
292.417
292.57
292.693
292.794
292.878
292.953
293.026
293.108
293.212
293.372
293.659
294.212
295.143
296.247
297.137
297.771
298.316
298.881
299.534
300.267
301.012
301.726
302.46
303.398
304.811
306.704
288.639
289.516
290.215
290.718
291.099
291.423
291.714
291.973
292.197
292.386
292.542
292.669
292.772
292.857
292.931
293
293.073
293.158
293.27
293.44
293.742
294.32
295.273
296.389
297.409
298.225
298.878
299.542
300.267
301.001
301.707
302.437
303.369
304.773
306.673
288.625
289.481
290.174
290.679
291.06
291.384
291.674
291.933
292.158
292.349
292.508
292.637
292.743
292.83
292.904
292.972
293.039
293.114
293.204
293.324
293.492
293.751
294.236
295.104
296.186
297.228
298.237
299.168
300.043
300.865
301.636
302.386
303.282
304.633
306.591
288.61
289.449
290.137
290.644
291.026
291.349
291.639
291.897
292.123
292.316
292.477
292.61
292.719
292.808
292.883
292.952
293.021
293.098
293.192
293.309
293.466
293.67
293.92
294.255
294.801
295.542
296.44
297.447
298.509
299.593
300.642
301.598
302.609
304.059
306.349
288.596
289.423
290.111
290.621
291.006
291.33
291.62
291.88
292.107
292.303
292.467
292.601
292.712
292.802
292.877
292.946
293.017
293.095
293.192
293.323
293.505
293.729
293.959
294.185
294.468
294.866
295.442
296.23
297.223
298.39
299.636
300.842
302.038
303.63
306.189
288.592
289.413
290.098
290.606
290.991
291.312
291.602
291.862
292.098
292.297
292.464
292.6
292.706
292.798
292.88
292.958
293.038
293.132
293.255
293.435
293.689
293.977
294.24
294.458
294.681
294.966
295.399
296.037
296.914
298.045
299.359
300.671
301.928
303.562
306.187
288.592
289.411
290.093
290.599
290.985
291.319
291.612
291.873
292.096
292.292
292.46
292.601
292.721
292.818
292.902
292.982
293.073
293.19
293.365
293.648
294.037
294.422
294.71
294.925
295.15
295.404
295.722
296.191
296.944
298.058
299.382
300.685
301.938
303.585
306.209
288.6
289.437
290.118
290.616
290.996
291.319
291.612
291.878
292.114
292.316
292.485
292.624
292.737
292.831
292.917
293.005
293.113
293.272
293.54
293.996
294.578
295.037
295.311
295.502
295.724
296.007
296.381
296.904
297.662
298.702
299.927
301.048
302.205
303.857
306.343
288.608
289.448
290.124
290.618
290.997
291.323
291.616
291.882
292.116
292.318
292.487
292.627
292.743
292.84
292.929
293.024
293.147
293.342
293.692
294.289
295.076
295.735
296.069
296.267
296.503
296.83
297.282
297.889
298.673
299.622
300.627
301.58
302.656
304.228
306.5
288.616
289.459
290.131
290.618
290.989
291.312
291.604
291.867
292.101
292.304
292.475
292.616
292.731
292.825
292.906
292.987
293.089
293.255
293.584
294.222
295.221
296.18
296.758
297.047
297.306
297.628
298.062
298.64
299.374
300.216
301.078
301.936
302.967
304.484
306.596
288.619
289.463
290.133
290.621
290.989
291.307
291.596
291.858
292.091
292.29
292.458
292.597
292.712
292.806
292.887
292.962
293.043
293.156
293.365
293.806
294.647
295.83
296.831
297.426
297.838
298.222
298.665
299.214
299.878
300.619
301.376
302.15
303.117
304.585
306.62
288.616
289.45
290.122
290.613
290.985
291.303
291.59
291.849
292.076
292.272
292.437
292.575
292.688
292.781
292.861
292.931
292.998
293.069
293.17
293.37
293.821
294.711
295.958
297.061
297.81
298.344
298.872
299.45
300.096
300.79
301.498
302.234
303.173
304.602
306.613
288.612
289.439
290.107
290.599
290.972
291.288
291.573
291.83
292.056
292.249
292.412
292.548
292.66
292.754
292.833
292.902
292.967
293.032
293.101
293.177
293.294
293.569
294.246
295.397
296.709
297.899
298.776
299.417
300.073
300.763
301.465
302.209
303.146
304.567
306.585
288.595
289.395
290.059
290.56
290.939
291.258
291.54
291.803
292.031
292.222
292.388
292.528
292.643
292.738
292.816
292.884
292.946
293.006
293.072
293.15
293.245
293.363
293.541
293.932
294.757
296.041
297.265
298.465
299.563
300.575
301.4
302.171
303.104
304.478
306.524
288.571
289.346
290.004
290.51
290.895
291.218
291.506
291.763
291.991
292.187
292.355
292.497
292.615
292.713
292.794
292.864
292.927
292.987
293.049
293.119
293.202
293.308
293.445
293.613
293.803
294.071
294.607
295.43
296.508
297.761
299.166
300.479
301.695
303.263
305.965
288.566
289.339
289.996
290.501
290.888
291.213
291.503
291.756
291.984
292.191
292.363
292.506
292.623
292.721
292.803
292.874
292.938
293.002
293.069
293.147
293.246
293.38
293.571
293.823
294.083
294.252
294.418
294.667
295.119
295.896
297.157
298.877
300.637
302.677
305.778
288.562
289.329
289.988
290.499
290.889
291.217
291.51
291.772
292.002
292.201
292.369
292.511
292.629
292.726
292.808
292.878
292.943
293.008
293.08
293.166
293.279
293.45
293.724
294.116
294.526
294.783
294.958
295.017
295.136
295.742
297.002
298.836
300.627
302.677
305.801
288.562
289.328
289.988
290.501
290.892
291.217
291.509
291.775
292.007
292.208
292.377
292.517
292.633
292.73
292.811
292.884
292.951
293.022
293.101
293.2
293.333
293.533
293.858
294.389
295.11
295.751
296.218
296.469
296.654
297.122
298.369
300.08
301.633
303.43
306.192
288.56
289.327
289.984
290.495
290.889
291.217
291.511
291.778
292.013
292.214
292.386
292.528
292.643
292.737
292.817
292.888
292.957
293.028
293.11
293.214
293.355
293.556
293.856
294.393
295.284
296.234
297.005
297.622
298.21
298.966
300.058
301.256
302.46
304.055
306.429
288.556
289.314
289.969
290.481
290.874
291.212
291.509
291.774
292.009
292.213
292.384
292.528
292.648
292.747
292.829
292.9
292.968
293.043
293.132
293.248
293.401
293.591
293.822
294.146
294.681
295.622
296.747
297.664
298.468
299.367
300.427
301.49
302.583
304.099
306.427
288.548
289.296
289.951
290.47
290.874
291.2
291.496
291.762
291.998
292.202
292.376
292.522
292.644
292.748
292.833
292.911
292.991
293.082
293.199
293.361
293.58
293.824
294.027
294.173
294.365
294.727
295.398
296.476
297.709
298.943
300.15
301.239
302.331
303.849
306.271
288.552
289.316
289.978
290.493
290.891
291.23
291.531
291.799
292.036
292.24
292.412
292.556
292.674
292.774
292.862
292.947
293.045
293.171
293.357
293.645
294.028
294.39
294.613
294.692
294.727
294.814
295.084
295.617
296.501
297.73
299.177
300.604
301.914
303.539
306.163
288.557
289.326
289.987
290.499
290.898
291.238
291.541
291.812
292.051
292.258
292.433
292.578
292.698
292.799
292.891
292.99
293.119
293.321
293.667
294.228
294.92
295.376
295.51
295.448
295.332
295.229
295.236
295.607
296.441
297.671
299.145
300.588
301.912
303.557
306.184
288.565
289.334
289.99
290.499
290.898
291.238
291.542
291.814
292.055
292.262
292.438
292.584
292.705
292.809
292.906
293.016
293.169
293.428
293.898
294.669
295.61
296.365
296.585
296.542
296.432
296.347
296.33
296.542
297.226
298.38
299.764
301.067
302.365
304.08
306.482
288.563
289.322
289.962
290.463
290.857
291.194
291.498
291.77
292.01
292.217
292.394
292.543
292.666
292.768
292.854
292.935
293.038
293.235
293.663
294.49
295.723
296.899
297.527
297.719
297.788
297.869
298.048
298.432
299.099
300.012
301.006
301.99
303.124
304.686
306.702
288.552
289.283
289.905
290.401
290.795
291.132
291.436
291.707
291.947
292.155
292.333
292.484
292.611
292.719
292.811
292.891
292.964
293.05
293.218
293.642
294.526
295.867
297.175
297.96
298.396
298.741
299.113
299.582
300.19
300.909
301.653
302.427
303.411
304.855
306.73
288.533
289.233
289.836
290.327
290.719
291.055
291.36
291.633
291.874
292.085
292.266
292.421
292.553
292.665
292.761
292.845
292.922
292.994
293.064
293.15