/*--------------------------------*- C++ -*----------------------------------*\
| =========                 |                                                 |
| \\      /  F ield         | OpenFOAM: The Open Source CFD Toolbox           |
|  \\    /   O peration     | Version:  2.0.x                                 |
|   \\  /    A nd           | Web:      www.OpenFOAM.org                      |
|    \\/     M anipulation  |                                                 |
\*---------------------------------------------------------------------------*/
FoamFile
{
    version     2.0;
    format      ascii;
    class       volVectorField;
    location    "200";
    object      U;
}
// * * * * * * * * * * * * * * * * * * * * * * * * * * * * * * * * * * * * * //

dimensions      [0 1 -1 0 0 0 0];

internalField   nonuniform List<vector> 
78750
(
(-0.00167725 0.00638541 0.00199091)
(-0.00300108 0.0080855 0.00358219)
(-0.00266031 0.00402233 0.00444514)
(-0.000380688 -0.00333861 0.0049625)
(0.00382397 -0.0112374 0.00529825)
(0.00999352 -0.0188529 0.00556637)
(0.0172953 -0.0247574 0.00577676)
(0.0253258 -0.0275132 0.00599152)
(0.0342753 -0.0341128 0.00615466)
(0.0432385 -0.0385929 0.00632708)
(0.0514561 -0.0391086 0.0064983)
(0.0591555 -0.0375788 0.00664635)
(0.0659912 -0.0346054 0.00675749)
(0.0719531 -0.0308953 0.00685104)
(0.0767977 -0.0273446 0.00689503)
(0.0809543 -0.0219567 0.00693203)
(0.083913 -0.0177992 0.00691572)
(0.086031 -0.0140401 0.00687437)
(0.0873003 -0.00702548 0.0067731)
(0.0873001 -0.00435475 0.00662718)
(0.0866863 -0.000366159 0.00640023)
(0.085248 0.00354391 0.00612037)
(0.0828413 0.00742973 0.005771)
(0.0795333 0.0112069 0.00535084)
(0.0753309 0.0151065 0.00491391)
(0.0708471 0.0183939 0.00435431)
(0.0652589 0.0224508 0.00387901)
(0.0595353 0.0248046 0.00311964)
(0.0526929 0.0267612 0.00223262)
(0.0454801 0.0282385 0.00119918)
(0.0378134 0.0291422 -2.94017e-05)
(0.0298642 0.0294339 -0.00149571)
(0.021609 0.0293525 -0.00344972)
(0.0133908 0.0316225 -0.00523726)
(0.00394692 0.0295161 -0.00326474)
(0.000262967 0.00152676 0.00141641)
(0.00366273 -0.0103095 0.00284398)
(0.010078 -0.0306459 0.00372648)
(0.0182326 -0.0510576 0.00428124)
(0.0269587 -0.0692898 0.0047474)
(0.0357412 -0.0837956 0.00522552)
(0.0424609 -0.0936977 0.00557453)
(0.0507459 -0.0981381 0.00634063)
(0.0545956 -0.0959175 0.00665075)
(0.0601367 -0.0889854 0.00683475)
(0.0635314 -0.0802466 0.00705024)
(0.0662177 -0.0714135 0.00720099)
(0.0682245 -0.0624616 0.00729801)
(0.0694812 -0.053333 0.00735186)
(0.0701365 -0.0444144 0.0073667)
(0.0700918 -0.0362663 0.00734171)
(0.0697883 -0.0280158 0.00728822)
(0.0687538 -0.0196341 0.00725778)
(0.0673285 -0.011313 0.00726582)
(0.0655976 -0.0031061 0.00733488)
(0.0632417 0.00496099 0.00737447)
(0.0607578 0.0119562 0.00742237)
(0.0573519 0.0221776 0.00750441)
(0.0540873 0.029657 0.00746714)
(0.0498981 0.0358702 0.00728865)
(0.0467814 0.0401297 0.00708154)
(0.0420729 0.0470431 0.00646409)
(0.0388939 0.0539437 0.00609704)
(0.0345175 0.060474 0.00564559)
(0.0299246 0.0665009 0.00509106)
(0.0249859 0.0715734 0.00423667)
(0.0196126 0.075642 0.00279348)
(0.013664 0.0807919 0.000504942)
(0.00718863 0.0893568 -0.00175432)
(0.00153139 0.0792112 -0.00154342)
(0.000623138 -0.018902 0.00109988)
(0.00550101 -0.0628809 0.00271481)
(0.0123352 -0.0994692 0.00387347)
(0.0185723 -0.122872 0.00476822)
(0.024422 -0.131187 0.00551058)
(0.0275425 -0.130326 0.0058066)
(0.0309624 -0.125259 0.00613561)
(0.031715 -0.116837 0.00651103)
(0.0330902 -0.107591 0.00683095)
(0.032234 -0.0986479 0.00710585)
(0.0321461 -0.0880159 0.00718422)
(0.03098 -0.0760075 0.00706644)
(0.0293698 -0.0633672 0.00668632)
(0.0274659 -0.050927 0.00603178)
(0.0254209 -0.0391893 0.0052167)
(0.0234209 -0.0281207 0.00441195)
(0.0214971 -0.0170804 0.00380688)
(0.0200642 -0.00527183 0.00362854)
(0.0185405 0.00631882 0.00381025)
(0.0174249 0.0142453 0.00405712)
(0.0162864 0.0246481 0.00460396)
(0.0151579 0.03472 0.00525902)
(0.0141664 0.0436555 0.00571565)
(0.013265 0.0510359 0.00582201)
(0.0123164 0.0568825 0.00561267)
(0.0108451 0.0607368 0.0051534)
(0.0105232 0.0645231 0.00465536)
(0.00864925 0.0708325 0.0039224)
(0.0080612 0.0772957 0.00322143)
(0.00719111 0.0840427 0.0024786)
(0.00612738 0.0914882 0.00161732)
(0.00499113 0.100171 0.000604266)
(0.00287871 0.110473 -0.000852353)
(0.000677706 0.117276 -0.00197651)
(-0.000478853 0.0902859 -0.00147422)
(0.000653983 -0.0370456 0.00154789)
(0.00374406 -0.0953821 0.00372825)
(0.00661729 -0.125957 0.00512339)
(0.00844 -0.135723 0.00587897)
(0.00925678 -0.137073 0.0064013)
(0.00995053 -0.135135 0.00672579)
(0.00960384 -0.129543 0.00693881)
(0.0106991 -0.12018 0.00707706)
(0.0104302 -0.108036 0.00731442)
(0.00912226 -0.0934026 0.00763957)
(0.00798935 -0.077194 0.00771117)
(0.00634997 -0.0608909 0.0073962)
(0.00433885 -0.0455487 0.00659637)
(0.00216954 -0.032186 0.00532726)
(-5.81933e-05 -0.021611 0.0038572)
(-0.00217694 -0.0138072 0.0027422)
(-0.00399375 -0.00782281 0.00220991)
(-0.00519226 -0.00291495 0.00216008)
(-0.00600936 0.00298399 0.00238717)
(-0.0063368 0.00938805 0.00278065)
(-0.00631933 0.0163 0.00325781)
(-0.00585672 0.0235072 0.00366789)
(-0.00500838 0.0307763 0.00392846)
(-0.00391173 0.0379007 0.00401425)
(-0.00288769 0.0449606 0.00396162)
(-0.00151018 0.0521841 0.0038471)
(-0.000795723 0.0584094 0.00347203)
(-0.000139588 0.0647772 0.00289523)
(0.000580289 0.0713873 0.00219654)
(0.00106014 0.0787909 0.00139726)
(0.00144833 0.0879807 0.000439331)
(0.00114654 0.10035 -0.000798565)
(0.000697705 0.1129 -0.00185472)
(-0.000116807 0.118581 -0.00231139)
(-0.00032491 0.0863628 -0.00142756)
(0.000432035 -0.0476078 0.001437)
(0.00160342 -0.108798 0.00349613)
(0.00233788 -0.13764 0.00480789)
(0.00282993 -0.147157 0.00563118)
(0.00323131 -0.147736 0.00619545)
(0.00341444 -0.143814 0.00666504)
(0.00340373 -0.13589 0.0071656)
(0.00320098 -0.124356 0.00766401)
(0.00233446 -0.109638 0.00814111)
(0.0023022 -0.0934769 0.00837111)
(0.00141871 -0.0766501 0.00853138)
(0.000791374 -0.0599051 0.00845171)
(0.000163083 -0.0440553 0.00798267)
(-0.000472586 -0.0299276 0.00706247)
(-0.00119842 -0.0181951 0.00577299)
(-0.00209409 -0.00911294 0.00450418)
(-0.00311567 -0.00303066 0.00354869)
(-0.00428123 0.00212092 0.00280883)
(-0.00537894 0.00645198 0.0024002)
(-0.0062173 0.0105363 0.00226937)
(-0.00673701 0.0146235 0.00231126)
(-0.00688546 0.0189082 0.0024765)
(-0.00665045 0.0235729 0.00269844)
(-0.00605745 0.0287391 0.00290939)
(-0.0051608 0.0344837 0.00304372)
(-0.00396941 0.0408634 0.00304404)
(-0.002634 0.0477374 0.00286152)
(-0.00127889 0.0551715 0.00248838)
(-3.48518e-05 0.0635066 0.00192434)
(0.000935612 0.073445 0.00117033)
(0.00146313 0.0860736 0.000212343)
(0.00137227 0.102081 -0.000957323)
(0.000843129 0.118379 -0.00188368)
(-2.22572e-05 0.12352 -0.00209723)
(-0.000255925 0.0858404 -0.00105624)
(0.000100386 -0.0515009 0.00158585)
(0.00029368 -0.113077 0.00403687)
(0.000308242 -0.140074 0.0054917)
(0.000186425 -0.148215 0.00625463)
(-9.45798e-06 -0.148579 0.00672575)
(-0.000224608 -0.144392 0.00710875)
(-0.00043539 -0.13626 0.00745982)
(-0.000642434 -0.124646 0.0078176)
(-0.000712431 -0.110519 0.00821903)
(-0.000794663 -0.0947502 0.008693)
(-0.000707005 -0.0783012 0.00913313)
(-0.000574635 -0.0620051 0.00942557)
(-0.000344085 -0.0463846 0.00941035)
(-5.3921e-05 -0.0318695 0.00891339)
(0.000215281 -0.0189384 0.0078344)
(0.000361054 -0.00805386 0.00631025)
(0.0002826 0.000436643 0.00463412)
(-0.00014555 0.0064677 0.00303697)
(-0.000695285 0.0106356 0.00170784)
(-0.00132711 0.0135783 0.000697602)
(-0.00183937 0.0159013 6.6647e-05)
(-0.00229739 0.018032 -0.000388273)
(-0.00254475 0.0202418 -0.000660814)
(-0.00255282 0.0227426 -0.000750328)
(-0.00227634 0.0258649 -0.000665708)
(-0.00179711 0.0300316 -0.000414137)
(-0.000993223 0.0356235 -0.000120211)
(-5.8708e-05 0.0430569 0.000127469)
(0.000909502 0.0529355 0.000215636)
(0.00169066 0.0662122 -3.74754e-06)
(0.00204692 0.0839197 -0.000648669)
(0.00176313 0.104819 -0.00141523)
(0.00111274 0.123422 -0.0020188)
(0.000335476 0.127931 -0.00201752)
(-9.40989e-05 0.0862269 -0.000968036)
(4.09352e-05 -0.0526443 0.00156821)
(9.97636e-05 -0.115455 0.00396641)
(6.03646e-05 -0.143702 0.00544889)
(-8.45948e-07 -0.152531 0.006226)
(-8.29642e-05 -0.153255 0.00669739)
(-0.000170753 -0.149548 0.00707589)
(-0.000238474 -0.142178 0.00742936)
(-0.000238525 -0.131601 0.00777189)
(-0.0001722 -0.1185 0.00809887)
(-2.41559e-05 -0.103807 0.00841971)
(0.000194481 -0.0884142 0.0087742)
(0.000504481 -0.0729823 0.00917412)
(0.000896533 -0.0579723 0.00957038)
(0.0013702 -0.0436831 0.00984146)
(0.00192135 -0.0303134 0.00981304)
(0.00251145 -0.0180293 0.00930749)
(0.00307558 -0.0070153 0.00820292)
(0.00351474 0.00251279 0.00672763)
(0.00367872 0.00887993 0.00534001)
(0.00364935 0.0139085 0.00383852)
(0.00333546 0.0174489 0.00233088)
(0.00291769 0.0200522 0.000937601)
(0.0024529 0.0221039 -0.000224389)
(0.00201525 0.0240047 -0.00111753)
(0.00159253 0.0261243 -0.00171938)
(0.00142448 0.0288949 -0.00203602)
(0.00127775 0.0328663 -0.00219681)
(0.00134281 0.0390699 -0.00217991)
(0.00155352 0.0488453 -0.00199559)
(0.00166874 0.0635506 -0.00167824)
(0.00189979 0.0841211 -0.00151622)
(0.0017501 0.108203 -0.00155067)
(0.001349 0.128372 -0.00170326)
(0.000727609 0.132449 -0.00150572)
(0.000149405 0.0881298 -0.000623061)
(8.67809e-06 -0.0538203 0.00164219)
(-2.20962e-05 -0.117262 0.00422147)
(-0.000143967 -0.145413 0.00578344)
(-0.000259465 -0.154218 0.00658168)
(-0.000372195 -0.155036 0.00704201)
(-0.000475278 -0.151491 0.0073972)
(-0.000536245 -0.144345 0.00771419)
(-0.000538909 -0.13404 0.00801651)
(-0.000472556 -0.121268 0.00830781)
(-0.000335748 -0.106929 0.00857994)
(-0.000133329 -0.0919624 0.00882879)
(0.000120267 -0.0771365 0.00906752)
(0.000425413 -0.0629528 0.00931547)
(0.000792738 -0.0496839 0.009571)
(0.00123486 -0.0374448 0.00978809)
(0.00176833 -0.0262405 0.00987118)
(0.00240369 -0.0160028 0.00968869)
(0.00314223 -0.00663135 0.0090819)
(0.00394627 0.00212978 0.00814874)
(0.0045898 0.00875193 0.00707439)
(0.00509429 0.0149636 0.0056538)
(0.00539816 0.0194528 0.00439454)
(0.00544969 0.0228707 0.0031389)
(0.00524693 0.0256148 0.00186064)
(0.00492831 0.0280998 0.000498057)
(0.00443602 0.0307099 -0.00108301)
(0.00407877 0.0341686 -0.0023261)
(0.00369828 0.0395645 -0.00309754)
(0.00340984 0.0487084 -0.00328484)
(0.00329876 0.0634165 -0.00319719)
(0.00306721 0.0841773 -0.00270992)
(0.0028375 0.110267 -0.00236099)
(0.00208013 0.132945 -0.0020885)
(0.000979993 0.137602 -0.00159465)
(9.4382e-05 0.0909945 -0.000564596)
(-3.85801e-06 -0.054392 0.00168612)
(-5.23691e-05 -0.118992 0.00427043)
(-0.000132912 -0.148551 0.00583404)
(-0.0001888 -0.158332 0.00664269)
(-0.000238841 -0.159776 0.00710634)
(-0.00027962 -0.156866 0.00745782)
(-0.000298894 -0.150514 0.00776861)
(-0.00027899 -0.141153 0.00806086)
(-0.000207254 -0.12935 0.00834007)
(-6.80106e-05 -0.115863 0.00860636)
(0.000134491 -0.101518 0.00885797)
(0.000386867 -0.087076 0.00909766)
(0.000690738 -0.0731137 0.00933074)
(0.00103997 -0.0600078 0.00956433)
(0.00143713 -0.0479599 0.009799)
(0.00189382 -0.0370502 0.0100152)
(0.00241961 -0.0272829 0.0101638)
(0.00303064 -0.0186221 0.0101617)
(0.00375981 -0.010935 0.00988566)
(0.00457825 -0.00347929 0.00947189)
(0.00548508 0.00390824 0.00882615)
(0.00623261 0.00993392 0.0079775)
(0.00696117 0.0165605 0.00666338)
(0.00744337 0.0223138 0.00512945)
(0.00762736 0.0270396 0.00352661)
(0.00758994 0.0310918 0.00217054)
(0.00727401 0.0356204 0.000444677)
(0.0069611 0.0413232 -0.00169554)
(0.00646021 0.0499365 -0.00343241)
(0.00578812 0.0643624 -0.00437692)
(0.00495291 0.0871855 -0.00460705)
(0.00339135 0.117085 -0.00430807)
(0.00180652 0.141888 -0.00363752)
(0.000397221 0.145835 -0.00266205)
(-0.000304627 0.0945459 -0.00100242)
(-1.30998e-05 -0.0551113 0.001792)
(-8.99316e-05 -0.120584 0.00448072)
(-0.000205967 -0.150613 0.00611881)
(-0.000295765 -0.160613 0.00698809)
(-0.000381686 -0.162153 0.0074869)
(-0.000459557 -0.159285 0.00784908)
(-0.000512738 -0.152958 0.00814812)
(-0.000528836 -0.143665 0.0084124)
(-0.000488351 -0.132047 0.0086503)
(-0.00039622 -0.118916 0.00885936)
(-0.000245684 -0.105097 0.00903664)
(-3.23075e-05 -0.0913118 0.00918576)
(0.000221328 -0.0780941 0.0093174)
(0.00051338 -0.0657906 0.00944413)
(0.000845256 -0.0545838 0.00957608)
(0.00121638 -0.0445177 0.00971668)
(0.00163273 -0.0355373 0.00985703)
(0.00209386 -0.0275496 0.0099679)
(0.00258456 -0.0204763 0.00998965)
(0.0031125 -0.01415 0.00983024)
(0.00375224 -0.00767186 0.00965086)
(0.00446126 -0.000869152 0.00939483)
(0.00507145 0.00522177 0.00902758)
(0.00571884 0.0125655 0.00833603)
(0.00621626 0.0201281 0.00726102)
(0.00646411 0.0276644 0.00563132)
(0.00632362 0.0349493 0.0037809)
(0.00589418 0.0436714 0.00159632)
(0.00524352 0.0558142 -0.00118537)
(0.0042263 0.0740509 -0.00377771)
(0.00292155 0.0999752 -0.00537631)
(0.0015533 0.1302 -0.00559218)
(0.000575148 0.151871 -0.00486282)
(-1.14935e-05 0.152114 -0.00359118)
(-0.00022116 0.0952894 -0.00136663)
(-4.70512e-05 -0.055315 0.00175422)
(-0.000170273 -0.121878 0.00426836)
(-0.000289666 -0.153274 0.0058047)
(-0.000338004 -0.164283 0.00666488)
(-0.000354801 -0.166495 0.00718881)
(-0.000360038 -0.164262 0.00759489)
(-0.00034377 -0.158675 0.00796268)
(-0.000286515 -0.150225 0.00832241)
(-0.00017712 -0.139442 0.00867659)
(-1.10756e-05 -0.127008 0.00900848)
(0.000208904 -0.113669 0.00929453)
(0.000474125 -0.100133 0.00951696)
(0.000771734 -0.0869895 0.00967329)
(0.00108907 -0.0746619 0.00977379)
(0.00142298 -0.0634122 0.00983643)
(0.0017689 -0.0533532 0.0098806)
(0.00212462 -0.0444508 0.00992261)
(0.00249676 -0.0365471 0.00996957)
(0.00288177 -0.029437 0.0100097)
(0.0032593 -0.0229713 0.00999715)
(0.00362637 -0.0169773 0.00984495)
(0.00401829 -0.0104479 0.00970379)
(0.00443012 -0.0029759 0.0095271)
(0.00473741 0.00408834 0.0093213)
(0.0049542 0.0122116 0.00898998)
(0.00510496 0.022123 0.00833857)
(0.00493208 0.0329465 0.00722373)
(0.0044086 0.0445884 0.00565303)
(0.00355344 0.0595249 0.00332334)
(0.00270661 0.0795156 0.000324775)
(0.00222898 0.105651 -0.00241551)
(0.00203129 0.134893 -0.00395149)
(0.00180426 0.154927 -0.00396697)
(0.00124669 0.153903 -0.00294205)
(0.000367882 0.0961509 -0.000971046)
(-1.67886e-05 -0.055494 0.00173873)
(-3.39201e-05 -0.123054 0.00422643)
(-6.13241e-05 -0.15536 0.00572125)
(-3.4954e-05 -0.166938 0.00654801)
(4.74661e-06 -0.169466 0.00704359)
(4.6693e-05 -0.167433 0.0074094)
(9.68545e-05 -0.162025 0.00773218)
(0.00016581 -0.153777 0.00805148)
(0.000266185 -0.143264 0.00838381)
(0.000412267 -0.131206 0.00872345)
(0.000610262 -0.118349 0.00904961)
(0.000864028 -0.10535 0.00933614)
(0.00117201 -0.0927444 0.00956467)
(0.00153032 -0.0809137 0.00972804)
(0.00192537 -0.0700965 0.00982981)
(0.00235227 -0.0604109 0.00988179)
(0.00280967 -0.0518579 0.00989929)
(0.00329036 -0.0443126 0.00989938)
(0.00379749 -0.0375303 0.00989636)
(0.00433024 -0.0311921 0.00989146)
(0.00487479 -0.0249852 0.00986424)
(0.00542664 -0.018647 0.00976449)
(0.00602209 -0.0118198 0.00949478)
(0.00671081 -0.00311932 0.00915638)
(0.00727109 0.00540044 0.00882185)
(0.00760366 0.0153439 0.00844541)
(0.0078865 0.0279761 0.00787781)
(0.00775967 0.0427794 0.00685437)
(0.00742808 0.0591786 0.00534191)
(0.00685239 0.0794755 0.00340496)
(0.00615604 0.105895 0.00102973)
(0.00546391 0.136181 -0.000971582)
(0.00398301 0.161071 -0.0019583)
(0.00217311 0.162508 -0.0016466)
(0.000478118 0.103101 -0.00035632)
(-7.79122e-07 -0.0563861 0.00169097)
(-4.23754e-05 -0.12523 0.00396494)
(-9.08742e-05 -0.158629 0.00529133)
(-6.69911e-05 -0.171027 0.00606413)
(-1.43452e-05 -0.174074 0.00655935)
(4.92574e-05 -0.172487 0.00695432)
(0.000127999 -0.167565 0.00732896)
(0.000245476 -0.159879 0.00772161)
(0.000409568 -0.149978 0.00814333)
(0.000626677 -0.138528 0.00858048)
(0.000907267 -0.126233 0.00900371)
(0.00124969 -0.113727 0.00938129)
(0.00164947 -0.101528 0.00968937)
(0.00210112 -0.0900318 0.00991847)
(0.00259546 -0.0794909 0.0100711)
(0.00312475 -0.0700327 0.0101588)
(0.00368659 -0.0616763 0.010197)
(0.00427574 -0.0543367 0.0102023)
(0.00489053 -0.0478287 0.0101899)
(0.00553872 -0.0418771 0.0101705)
(0.00623445 -0.0361343 0.0101419)
(0.00699349 -0.0302103 0.0100812)
(0.00781577 -0.023728 0.0099318)
(0.00874584 -0.0163364 0.00956413)
(0.0097841 -0.00651018 0.00899025)
(0.0107408 0.00659009 0.00810314)
(0.0112658 0.0171583 0.00738239)
(0.0120495 0.0349313 0.00622216)
(0.0113016 0.0567002 0.00474242)
(0.0101548 0.0812894 0.00265505)
(0.00795016 0.112578 -7.81168e-06)
(0.00532661 0.149981 -0.00240973)
(0.00268244 0.1772 -0.00324187)
(0.000654582 0.177047 -0.00279214)
(-0.000389326 0.109254 -0.00127379)
(5.94226e-07 -0.0566912 0.00167716)
(-0.000116863 -0.125957 0.00374978)
(-0.000184985 -0.160092 0.00491701)
(-0.000153932 -0.173196 0.00557646)
(-8.54139e-05 -0.176712 0.00599716)
(-3.23014e-06 -0.175526 0.00633832)
(9.40583e-05 -0.171023 0.00667805)
(0.00021837 -0.163812 0.00706391)
(0.000380816 -0.154455 0.00751747)
(0.000582315 -0.143606 0.00803173)
(0.000832554 -0.131937 0.00857528)
(0.00113007 -0.120053 0.00910592)
(0.00147098 -0.108434 0.00958333)
(0.00185004 -0.0974555 0.00998062)
(0.00225511 -0.0873678 0.0102871)
(0.0026791 -0.0783017 0.0105072)
(0.00311617 -0.0702822 0.0106554)
(0.00355772 -0.0632388 0.0107526)
(0.00400048 -0.0570154 0.0108214)
(0.00444035 -0.0513849 0.0108825)
(0.00488182 -0.0460617 0.0109474)
(0.00533724 -0.0406983 0.0110093)
(0.00581729 -0.0348609 0.0110267)
(0.00632115 -0.0279521 0.0108981)
(0.0069036 -0.0189641 0.0103969)
(0.00775184 -0.00492039 0.00935368)
(0.00827093 0.0104007 0.00800417)
(0.00833181 0.0321092 0.00601928)
(0.0078603 0.0610298 0.0037798)
(0.00625162 0.0952018 0.000930796)
(0.00370535 0.132786 -0.00224126)
(0.000792128 0.168952 -0.00473331)
(-0.000542788 0.189177 -0.00528241)
(-0.00109032 0.182499 -0.00466682)
(-0.000710532 0.108589 -0.00208041)
(-5.10788e-05 -0.0568229 0.00167109)
(-0.000220638 -0.126858 0.00350042)
(-0.000300906 -0.162478 0.00442428)
(-0.000237628 -0.176592 0.00496503)
(-0.000124719 -0.180712 0.00531356)
(-2.12439e-07 -0.17999 0.00560422)
(0.000126822 -0.175945 0.0059113)
(0.000264917 -0.16922 0.00628187)
(0.000422716 -0.160365 0.00674015)
(0.000604672 -0.149995 0.00728422)
(0.000812879 -0.138755 0.00788994)
(0.0010469 -0.127229 0.00852036)
(0.00130328 -0.11589 0.00913573)
(0.00157519 -0.105093 0.0097008)
(0.00185243 -0.0950919 0.0101923)
(0.00212344 -0.0860264 0.0106)
(0.00237658 -0.0779356 0.0109272)
(0.00259731 -0.070765 0.0111881)
(0.00277341 -0.0643797 0.0114055)
(0.0028982 -0.0585739 0.0116079)
(0.0029617 -0.0530763 0.0118273)
(0.00295362 -0.0475383 0.0120927)
(0.00286439 -0.0414945 0.0124218)
(0.00267718 -0.0343095 0.0127864)
(0.00237685 -0.0250922 0.0130364)
(0.00207256 -0.0124986 0.0127273)
(0.00190301 0.0069257 0.0114331)
(0.00172801 0.0321906 0.00911415)
(0.00166636 0.0645469 0.00615107)
(0.00117591 0.101729 0.00306497)
(0.00044388 0.141259 -0.000192101)
(-0.000162471 0.176127 -0.00292224)
(-0.000671195 0.191417 -0.00473121)
(-0.000186374 0.182608 -0.00383165)
(-8.30277e-06 0.105173 -0.00144182)
(-8.7628e-05 -0.0560921 0.00158713)
(-0.000259341 -0.126854 0.00318777)
(-0.000258028 -0.163616 0.00402324)
(-0.000122778 -0.178579 0.00448277)
(6.75772e-05 -0.183179 0.00474604)
(0.000262727 -0.182772 0.00494822)
(0.000459057 -0.179016 0.00517146)
(0.000657136 -0.172602 0.00546695)
(0.000860742 -0.164107 0.00586308)
(0.00107756 -0.154146 0.00636196)
(0.00130769 -0.143344 0.00694437)
(0.00155455 -0.132255 0.00757857)
(0.00181566 -0.12132 0.0082297)
(0.00208546 -0.110853 0.00886507)
(0.00235609 -0.101074 0.00945856)
(0.00261615 -0.0921057 0.00999293)
(0.00285279 -0.0839806 0.0104608)
(0.00305114 -0.0766486 0.010865)
(0.0031982 -0.0699844 0.0112181)
(0.0032795 -0.063798 0.0115409)
(0.00327994 -0.0578315 0.0118641)
(0.00318837 -0.0517472 0.0122287)
(0.00299247 -0.0450945 0.0126824)
(0.00267661 -0.0372799 0.0132742)
(0.00222396 -0.0275594 0.014016)
(0.00154104 -0.0150284 0.0147534)
(0.000611003 0.00285283 0.0150819)
(0.000212484 0.0250104 0.0142308)
(0.000866924 0.0575097 0.0112852)
(0.00182625 0.0964067 0.00733601)
(0.00258581 0.137951 0.0033321)
(0.00280115 0.175668 0.000398028)
(0.00267227 0.19292 -0.00134285)
(0.00164994 0.184237 -0.00186403)
(0.000574235 0.105887 -0.000575717)
(-7.84247e-05 -0.0554934 0.00129664)
(-0.000134368 -0.127864 0.0026638)
(3.46733e-05 -0.166368 0.00349965)
(0.000347894 -0.182311 0.00391334)
(0.000703754 -0.187407 0.00410475)
(0.00105482 -0.187326 0.00422529)
(0.00139997 -0.183918 0.00436413)
(0.00174428 -0.177846 0.00457916)
(0.00208512 -0.169727 0.00489838)
(0.00242191 -0.16015 0.00532502)
(0.00276674 -0.149704 0.00584204)
(0.0031252 -0.138925 0.00642131)
(0.00349759 -0.128253 0.00703251)
(0.00388182 -0.117999 0.00764828)
(0.00427384 -0.108361 0.00824561)
(0.00466768 -0.0994535 0.008808)
(0.00505376 -0.0912982 0.00932505)
(0.00542288 -0.0838435 0.00979246)
(0.00575773 -0.0769717 0.010212)
(0.00604625 -0.0705086 0.0105926)
(0.00627871 -0.0642203 0.0109514)
(0.00644109 -0.0577979 0.011317)
(0.00652701 -0.0508252 0.0117318)
(0.00654277 -0.0427395 0.0122535)
(0.00647797 -0.0328191 0.0129358)
(0.00625883 -0.0201779 0.0138059)
(0.00578681 -0.0025384 0.0148382)
(0.00531891 0.0143744 0.0154289)
(0.00518331 0.0431027 0.0151953)
(0.00576564 0.0816116 0.0132361)
(0.00622725 0.129195 0.00980072)
(0.00568843 0.175236 0.00517033)
(0.00474252 0.199848 0.00351492)
(0.00249404 0.195363 0.00270434)
(0.000529545 0.115451 0.0017152)
(-5.38525e-05 -0.0550939 0.00100197)
(8.44556e-05 -0.129148 0.00222777)
(0.000459694 -0.169143 0.00315132)
(0.000951765 -0.185784 0.00354826)
(0.00146453 -0.191172 0.00366116)
(0.00196443 -0.191229 0.00368141)
(0.00244356 -0.188011 0.00370656)
(0.00291143 -0.182097 0.00380473)
(0.0033639 -0.174202 0.00401048)
(0.00381759 -0.164914 0.0043274)
(0.00427278 -0.154809 0.00473974)
(0.0047301 -0.144406 0.00522178)
(0.00519476 -0.13412 0.00574556)
(0.00566806 -0.124247 0.00628593)
(0.00614722 -0.114968 0.00682344)
(0.00663133 -0.106363 0.00734389)
(0.00710973 -0.0984288 0.00783886)
(0.00757319 -0.0910908 0.00830413)
(0.00801198 -0.0842208 0.00873798)
(0.00840754 -0.0776448 0.00914161)
(0.00873894 -0.0711439 0.00952048)
(0.00898477 -0.0644448 0.00988858)
(0.00912181 -0.0571991 0.0102756)
(0.0091545 -0.0488899 0.0107423)
(0.00905743 -0.0386038 0.0114019)
(0.00882539 -0.0249109 0.0124391)
(0.00831118 -0.0068888 0.0138336)
(0.00775144 0.0102029 0.0149664)
(0.00720285 0.0357924 0.0157851)
(0.00673233 0.0773597 0.0149455)
(0.00612708 0.129388 0.0114356)
(0.00482121 0.180445 0.00703119)
(0.00286347 0.210973 0.00532156)
(0.000907162 0.205373 0.00405261)
(-0.000115288 0.119721 0.00252147)
(-1.07152e-05 -0.055134 0.000415541)
(0.000409531 -0.132229 0.00174684)
(0.00106294 -0.173839 0.00284051)
(0.00180625 -0.190984 0.0032433)
(0.0025339 -0.196531 0.0033042)
(0.00324996 -0.196656 0.00324907)
(0.00392842 -0.193592 0.00318247)
(0.00460134 -0.187835 0.00317583)
(0.00524637 -0.180148 0.00327358)
(0.00588824 -0.171096 0.00347722)
(0.00653475 -0.161231 0.00377233)
(0.00718304 -0.151045 0.00413691)
(0.0078321 -0.140926 0.00454537)
(0.00848202 -0.131175 0.00497401)
(0.00913364 -0.121974 0.00540399)
(0.00979085 -0.113407 0.00582087)
(0.0104541 -0.105461 0.00621466)
(0.0111104 -0.0980335 0.00658001)
(0.011744 -0.0909594 0.00691435)
(0.0123415 -0.0840239 0.00721494)
(0.0128731 -0.0769682 0.00747846)
(0.0133119 -0.0694946 0.00770148)
(0.0135935 -0.0612814 0.00787852)
(0.013745 -0.0519501 0.00799999)
(0.0135651 -0.040651 0.00819636)
(0.0130852 -0.0258769 0.00885541)
(0.0112778 -0.00638379 0.0105169)
(0.00963278 0.00990713 0.011958)
(0.00773056 0.0348121 0.0142597)
(0.00613033 0.0766265 0.0155135)
(0.00547297 0.131617 0.0142655)
(0.00345516 0.187869 0.0111107)
(0.00284926 0.21776 0.0069568)
(0.001701 0.210121 0.00457051)
(0.00033559 0.120934 0.00288698)
(0.000116111 -0.0562628 -0.000175885)
(0.00109473 -0.137042 0.00151104)
(0.00210661 -0.179758 0.00272918)
(0.00311314 -0.197012 0.00303684)
(0.00407246 -0.202517 0.00298093)
(0.00499922 -0.202582 0.00282054)
(0.00588831 -0.199557 0.00265028)
(0.0067811 -0.193842 0.00253464)
(0.00764304 -0.186254 0.00252277)
(0.00849901 -0.177358 0.00260867)
(0.0093609 -0.167732 0.00277902)
(0.0102625 -0.157873 0.00301824)
(0.0112061 -0.148086 0.0032996)
(0.0122142 -0.138632 0.00360419)
(0.0133153 -0.129694 0.00391213)
(0.0144672 -0.121347 0.00420721)
(0.0156773 -0.113567 0.00447353)
(0.0169473 -0.106232 0.00469677)
(0.0182713 -0.099135 0.00486399)
(0.0196483 -0.0919931 0.00495948)
(0.0210264 -0.0844504 0.00496283)
(0.0224428 -0.0761038 0.00483988)
(0.0236277 -0.0666348 0.00453991)
(0.0249693 -0.0557589 0.00362258)
(0.0253229 -0.0407153 0.00246219)
(0.0239447 -0.020661 0.00205246)
(0.0210405 0.0088287 0.00269679)
(0.0191877 0.0243339 0.00372444)
(0.0154835 0.0474718 0.00769989)
(0.0124259 0.0792742 0.0125886)
(0.0118607 0.129476 0.0120178)
(0.0115761 0.187953 0.0113023)
(0.00925547 0.219404 0.0113175)
(0.00550736 0.214872 0.011032)
(0.00124321 0.133404 0.00657854)
(0.000428872 -0.0612308 -0.000346769)
(0.00185438 -0.146023 0.00207561)
(0.00306113 -0.188578 0.00326852)
(0.00419505 -0.205187 0.00337129)
(0.00525292 -0.210361 0.00317196)
(0.00626433 -0.210322 0.00293448)
(0.00727515 -0.207334 0.00271146)
(0.00828438 -0.201759 0.00255868)
(0.00926796 -0.194379 0.00250636)
(0.0102479 -0.185786 0.00253679)
(0.0112598 -0.176655 0.00263595)
(0.0123392 -0.167575 0.00280122)
(0.013585 -0.158618 0.00299065)
(0.0149614 -0.149996 0.00319688)
(0.0164902 -0.14191 0.00341162)
(0.018188 -0.134413 0.00362028)
(0.0200636 -0.127453 0.00380654)
(0.0221205 -0.120902 0.00395156)
(0.0243622 -0.114542 0.00402764)
(0.026793 -0.108036 0.00398663)
(0.0293874 -0.100838 0.00376526)
(0.0321766 -0.0923768 0.00323496)
(0.0343726 -0.0831993 0.00218893)
(0.0357598 -0.0644619 0.00010524)
(0.0359236 -0.0429339 -0.00282518)
(0.0337322 -0.00393812 -0.0083805)
(0.0320455 0.0147315 -0.010786)
(0.0291163 0.040559 -0.0123285)
(0.0256078 0.0632073 -0.0123657)
(0.0239611 0.085328 -0.00927419)
(0.0181525 0.131097 -0.000437772)
(0.0136063 0.192222 0.00702658)
(0.00758602 0.246422 0.00854929)
(0.00328042 0.251557 0.00559723)
(-0.00016851 0.158581 0.000171211)
(0.000537395 -0.0682112 0.000348356)
(0.00173622 -0.154991 0.00330519)
(0.00257919 -0.196416 0.004149)
(0.00339851 -0.212261 0.00396868)
(0.00420966 -0.217137 0.00363047)
(0.00501661 -0.217037 0.00336603)
(0.0058434 -0.213982 0.00320091)
(0.00667 -0.208444 0.00315026)
(0.00749027 -0.201121 0.0032023)
(0.00833089 -0.192645 0.00333089)
(0.00928535 -0.18388 0.00351598)
(0.0101093 -0.176041 0.00377163)
(0.0108703 -0.168655 0.00403355)
(0.0118036 -0.161486 0.00433169)
(0.0128272 -0.155003 0.00468926)
(0.0139933 -0.149244 0.00508245)
(0.0153236 -0.144094 0.00550202)
(0.0168315 -0.139368 0.00594371)
(0.0185274 -0.134806 0.00637707)
(0.0204248 -0.12998 0.0066938)
(0.0226706 -0.124063 0.00665125)
(0.0237421 -0.114485 0.00582027)
(0.027678 -0.0934593 0.00161717)
(0.026702 -0.0652253 -0.00566085)
(0.0248141 -0.029475 -0.0162285)
(0.0211742 0.012862 -0.0274341)
(0.0193727 0.035279 -0.0327105)
(0.0167898 0.0670988 -0.0365767)
(0.0136236 0.101232 -0.0354373)
(0.00910551 0.140983 -0.0280735)
(0.00289381 0.189025 -0.0150497)
(-0.00468754 0.24721 -0.00823934)
(-0.00703936 0.269836 -0.00636623)
(-0.00681316 0.257469 -0.00613284)
(-0.00315687 0.157 -0.00545343)
(0.000462321 -0.0749486 0.0017017)
(0.00101255 -0.161266 0.00478768)
(0.00136728 -0.201622 0.00515426)
(0.00173145 -0.21754 0.00479589)
(0.00219628 -0.222616 0.00439624)
(0.00265724 -0.222789 0.00415503)
(0.00314803 -0.220004 0.00410154)
(0.00364819 -0.214935 0.00419596)
(0.00415298 -0.208238 0.00438806)
(0.00478632 -0.200453 0.00461708)
(0.00507332 -0.192054 0.0047643)
(0.0055528 -0.183362 0.0046045)
(0.00640225 -0.175214 0.00440899)
(0.00659479 -0.167944 0.00474992)
(0.00683232 -0.16155 0.00527277)
(0.00699469 -0.15601 0.00591205)
(0.00708549 -0.151209 0.00666793)
(0.00711046 -0.146929 0.00755196)
(0.00704111 -0.142812 0.00853704)
(0.00679744 -0.138185 0.00947662)
(0.0063042 -0.131414 0.0101406)
(0.00552013 -0.117444 0.0104534)
(0.00192653 -0.0869348 0.00756184)
(0.00509413 -0.0414825 -0.00904114)
(0.00235385 4.05951e-05 -0.0251371)
(-0.00204389 0.0414448 -0.0344648)
(-0.0066297 0.0785704 -0.0374266)
(-0.00953148 0.113763 -0.036197)
(-0.0130596 0.150458 -0.0319613)
(-0.0168397 0.188976 -0.0254375)
(-0.0200914 0.225557 -0.0183468)
(-0.0192121 0.254318 -0.0133516)
(-0.0153344 0.262417 -0.0110822)
(-0.0112838 0.236922 -0.0109316)
(-0.00530517 0.123159 -0.00994038)
(0.000128164 -0.0779952 0.00275526)
(-6.8997e-06 -0.164056 0.00564613)
(-0.000365608 -0.204097 0.00564871)
(-0.000635424 -0.21992 0.00507495)
(-0.000834794 -0.224887 0.0046894)
(-0.00098131 -0.225042 0.00455222)
(-0.00120126 -0.222072 0.00465588)
(-0.00146969 -0.216873 0.0049409)
(-0.00184976 -0.210107 0.00535785)
(-0.00247134 -0.202137 0.00592096)
(-0.00306384 -0.193464 0.0066461)
(-0.00379717 -0.184325 0.00761999)
(-0.00523408 -0.17526 0.00879902)
(-0.00619947 -0.167491 0.00952471)
(-0.00735564 -0.160696 0.010203)
(-0.00862396 -0.15476 0.0109623)
(-0.0100177 -0.149539 0.0118975)
(-0.0115871 -0.144799 0.0131306)
(-0.0134068 -0.140116 0.0148354)
(-0.0156093 -0.134414 0.0172)
(-0.0186924 -0.124783 0.0201199)
(-0.0216789 -0.105783 0.0216711)
(-0.021386 -0.0712915 0.0186855)
(-0.0180015 -0.0216627 0.00730109)
(-0.0173453 0.0113097 -0.0047992)
(-0.0191246 0.0675813 -0.0220291)
(-0.0214648 0.102602 -0.025152)
(-0.0229433 0.133975 -0.0248798)
(-0.0242535 0.165605 -0.0232018)
(-0.0245467 0.195942 -0.0206137)
(-0.0230679 0.221818 -0.0178631)
(-0.0197644 0.232781 -0.0163679)
(-0.0142184 0.228101 -0.0165678)
(-0.00832842 0.190246 -0.0156211)
(-0.00196544 0.0875539 -0.00891662)
(-0.000228699 -0.0781897 0.00452047)
(-0.00130478 -0.16075 0.00696676)
(-0.0021533 -0.200687 0.00600648)
(-0.00288288 -0.217143 0.00509392)
(-0.00339555 -0.222612 0.00468719)
(-0.00381418 -0.222957 0.0046297)
(-0.00418712 -0.220128 0.00487174)
(-0.00463903 -0.214371 0.00526888)
(-0.0051936 -0.206439 0.00576402)
(-0.005845 -0.197633 0.00638557)