/*--------------------------------*- C++ -*----------------------------------*\
| =========                 |                                                 |
| \\      /  F ield         | OpenFOAM: The Open Source CFD Toolbox           |
|  \\    /   O peration     | Version:  2.0.x                                 |
|   \\  /    A nd           | Web:      www.OpenFOAM.org                      |
|    \\/     M anipulation  |                                                 |
\*---------------------------------------------------------------------------*/
FoamFile
{
    version     2.0;
    format      ascii;
    class       volScalarField;
    location    "300";
    object      alphat;
}
// * * * * * * * * * * * * * * * * * * * * * * * * * * * * * * * * * * * * * //

dimensions      [1 -1 -1 0 0 0 0];

internalField   nonuniform List<scalar> 
78750
(
1.77692e-08
1.2152e-05
1.59715e-05
1.65721e-05
1.71156e-05
1.69901e-05
1.62411e-05
1.53911e-05
1.50562e-05
1.48619e-05
1.51219e-05
1.56677e-05
1.60523e-05
1.60698e-05
1.63232e-05
1.68997e-05
1.72434e-05
1.82067e-05
1.78551e-05
1.75025e-05
1.95223e-05
2.03027e-05
1.99676e-05
1.97685e-05
1.93266e-05
1.84359e-05
1.81124e-05
1.81795e-05
1.76428e-05
1.69328e-05
1.61597e-05
1.52374e-05
1.40392e-05
1.13063e-05
6.78979e-08
1.01741e-08
5.06906e-06
5.14497e-06
6.54945e-06
8.68756e-06
1.15553e-05
1.46676e-05
1.8631e-05
2.38081e-05
2.69811e-05
3.03804e-05
3.35444e-05
3.27084e-05
3.48843e-05
3.81318e-05
4.10181e-05
4.37187e-05
4.69474e-05
5.01148e-05
5.10672e-05
5.11608e-05
4.93893e-05
4.80744e-05
3.93688e-05
3.67764e-05
3.74678e-05
3.51542e-05
3.16938e-05
2.61077e-05
2.33715e-05
2.11478e-05
1.87286e-05
1.58186e-05
1.43375e-05
2.36447e-07
1.06673e-08
2.64156e-06
5.14851e-06
8.89622e-06
1.47711e-05
2.38657e-05
3.45046e-05
4.1863e-05
4.5309e-05
4.75275e-05
4.85912e-05
5.21648e-05
5.56266e-05
5.50436e-05
5.44318e-05
5.26301e-05
5.08587e-05
4.91073e-05
4.80734e-05
4.82839e-05
4.59754e-05
3.43752e-05
3.98531e-05
4.90892e-05
3.69623e-05
3.38005e-05
3.05015e-05
2.88037e-05
2.81068e-05
2.6143e-05
2.44269e-05
2.1878e-05
2.08893e-05
1.67487e-05
3.8864e-07
3.84881e-08
3.32536e-06
8.45782e-06
1.93824e-05
3.61535e-05
4.69798e-05
5.17575e-05
5.45562e-05
5.57192e-05
5.49405e-05
5.05645e-05
4.60257e-05
4.44549e-05
4.187e-05
3.76894e-05
3.50898e-05
3.36955e-05
3.34449e-05
3.34745e-05
3.24182e-05
2.93341e-05
3.33334e-05
3.47834e-05
2.69836e-05
2.36865e-05
2.2625e-05
2.36221e-05
2.42705e-05
2.40742e-05
2.40735e-05
2.28962e-05
2.1744e-05
2.5407e-05
1.42488e-05
3.86598e-07
8.58477e-08
4.12852e-06
1.14888e-05
2.52762e-05
3.97232e-05
4.83183e-05
5.19626e-05
5.1554e-05
4.96728e-05
4.69893e-05
4.34447e-05
3.97206e-05
3.54622e-05
3.27631e-05
3.14319e-05
3.03844e-05
2.93017e-05
2.91141e-05
2.96693e-05
2.97444e-05
2.81444e-05
2.7847e-05
2.56004e-05
1.99986e-05
1.70779e-05
1.65346e-05
1.69791e-05
1.80182e-05
1.90441e-05
1.93136e-05
1.84703e-05
1.91333e-05
2.63063e-05
1.16893e-05
3.5851e-07
1.23298e-07
4.70168e-06
1.3706e-05
3.15379e-05
4.66565e-05
5.20637e-05
5.30712e-05
5.16703e-05
4.88868e-05
4.53825e-05
4.17449e-05
3.85042e-05
3.55796e-05
3.26257e-05
3.00339e-05
2.83305e-05
2.74152e-05
2.68925e-05
2.69606e-05
2.71805e-05
2.61772e-05
2.48963e-05
2.16937e-05
1.76814e-05
1.56295e-05
1.51637e-05
1.57191e-05
1.65526e-05
1.70721e-05
1.67963e-05
1.61874e-05
1.78517e-05
2.70402e-05
1.02122e-05
3.32126e-07
1.4255e-07
4.85523e-06
1.4036e-05
3.14549e-05
4.62768e-05
5.22383e-05
5.33918e-05
5.19234e-05
4.92784e-05
4.61654e-05
4.29003e-05
3.96195e-05
3.65012e-05
3.3705e-05
3.12012e-05
2.89156e-05
2.70838e-05
2.59699e-05
2.57438e-05
2.63118e-05
2.61913e-05
2.40378e-05
2.14092e-05
1.79483e-05
1.52388e-05
1.43276e-05
1.43678e-05
1.47237e-05
1.47193e-05
1.41097e-05
1.39001e-05
1.63643e-05
2.64919e-05
9.42908e-06
3.20462e-07
1.56063e-07
5.06018e-06
1.49786e-05
3.38777e-05
4.84665e-05
5.35793e-05
5.43281e-05
5.2936e-05
5.04688e-05
4.75177e-05
4.44513e-05
4.14883e-05
3.86934e-05
3.60719e-05
3.36575e-05
3.14087e-05
2.92943e-05
2.74449e-05
2.61404e-05
2.55323e-05
2.5143e-05
2.39617e-05
2.25999e-05
1.99077e-05
1.66333e-05
1.46073e-05
1.35873e-05
1.31544e-05
1.275e-05
1.21857e-05
1.21513e-05
1.48308e-05
2.54239e-05
8.81143e-06
3.2018e-07
1.59566e-07
5.02531e-06
1.45382e-05
3.25645e-05
4.7749e-05
5.39682e-05
5.56053e-05
5.48765e-05
5.28919e-05
5.03013e-05
4.74691e-05
4.45872e-05
4.17595e-05
3.90437e-05
3.64839e-05
3.41024e-05
3.18465e-05
2.96967e-05
2.77474e-05
2.62075e-05
2.51584e-05
2.36941e-05
2.30353e-05
2.14439e-05
1.79076e-05
1.53939e-05
1.34422e-05
1.20273e-05
1.10663e-05
1.03873e-05
1.05599e-05
1.33884e-05
2.40176e-05
8.51519e-06
3.276e-07
1.61842e-07
5.08364e-06
1.47532e-05
3.30626e-05
4.84959e-05
5.49745e-05
5.69224e-05
5.65434e-05
5.49179e-05
5.26567e-05
5.01095e-05
4.74808e-05
4.48916e-05
4.23862e-05
3.99714e-05
3.76725e-05
3.54287e-05
3.31626e-05
3.09182e-05
2.88719e-05
2.70875e-05
2.53048e-05
2.26695e-05
2.17202e-05
1.98632e-05
1.61345e-05
1.3691e-05
1.16625e-05
1.00423e-05
9.05206e-06
9.17487e-06
1.17579e-05
2.18316e-05
8.26431e-06
3.4745e-07
1.62936e-07
5.05691e-06
1.43368e-05
3.14402e-05
4.74515e-05
5.53233e-05
5.82584e-05
5.8617e-05
5.75247e-05
5.56223e-05
5.3313e-05
5.08556e-05
4.8396e-05
4.59951e-05
4.36615e-05
4.13958e-05
3.92132e-05
3.7024e-05
3.47308e-05
3.23944e-05
3.03133e-05
2.87025e-05
2.58349e-05
2.18107e-05
2.03102e-05
1.7472e-05
1.34281e-05
1.08881e-05
8.97109e-06
7.93189e-06
7.92626e-06
1.029e-05
2.08395e-05
7.8677e-06
3.65013e-07
1.61718e-07
5.05437e-06
1.43141e-05
3.15351e-05
4.76585e-05
5.58964e-05
5.94266e-05
6.03651e-05
5.97443e-05
5.82242e-05
5.62205e-05
5.40034e-05
5.17344e-05
4.95049e-05
4.73412e-05
4.52315e-05
4.31698e-05
4.1108e-05
3.89323e-05
3.65742e-05
3.40832e-05
3.16282e-05
2.91515e-05
2.4822e-05
2.13465e-05
1.75147e-05
1.28104e-05
9.97872e-06
8.23881e-06
7.10444e-06
7.18776e-06
9.97549e-06
2.12196e-05
7.40548e-06
3.67926e-07
1.58829e-07
4.99269e-06
1.37994e-05
2.99364e-05
4.65512e-05
5.60211e-05
6.04968e-05
6.21459e-05
6.20172e-05
6.08215e-05
5.90178e-05
5.69256e-05
5.47589e-05
5.26355e-05
5.05977e-05
4.86244e-05
4.66724e-05
4.47233e-05
4.26803e-05
4.04352e-05
3.79621e-05
3.53047e-05
3.24122e-05
2.89389e-05
2.31052e-05
1.88812e-05
1.40282e-05
9.65429e-06
7.54305e-06
6.58923e-06
6.77226e-06
9.42068e-06
2.01283e-05
7.32582e-06
3.80658e-07
1.55831e-07
4.95725e-06
1.35788e-05
2.94618e-05
4.60352e-05
5.61172e-05
6.1255e-05
6.34689e-05
6.37711e-05
6.29272e-05
6.14087e-05
5.95614e-05
5.76523e-05
5.57803e-05
5.39984e-05
5.22868e-05
5.05875e-05
4.88426e-05
4.69958e-05
4.49171e-05
4.24942e-05
3.97617e-05
3.69574e-05
3.40739e-05
2.81843e-05
2.046e-05
1.62154e-05
1.13723e-05
7.60553e-06
6.15258e-06
6.20403e-06
8.58808e-06
1.86445e-05
7.28198e-06
4.0512e-07
1.52327e-07
4.90748e-06
1.31286e-05
2.82001e-05
4.5117e-05
5.60113e-05
6.18061e-05
6.45704e-05
6.52821e-05
6.47483e-05
6.34577e-05
6.17869e-05
6.0033e-05
5.83306e-05
5.67437e-05
5.52626e-05
5.38239e-05
5.23407e-05
5.07452e-05
4.89511e-05
4.68468e-05
4.43284e-05
4.13191e-05
3.7792e-05
3.32721e-05
2.5028e-05
1.86831e-05
1.20975e-05
7.60895e-06
5.93351e-06
5.75719e-06
7.99311e-06
1.87691e-05
7.04714e-06
4.15531e-07
1.48013e-07
4.84549e-06
1.2878e-05
2.75909e-05
4.46802e-05
5.59987e-05
6.20389e-05
6.5053e-05
6.60442e-05
6.57356e-05
6.46235e-05
6.31467e-05
6.15847e-05
6.01056e-05
5.87525e-05
5.75166e-05
5.63308e-05
5.50958e-05
5.37117e-05
5.20653e-05
5.00524e-05
4.76526e-05
4.49648e-05
4.19578e-05
3.80503e-05
2.93806e-05
2.16635e-05
1.45316e-05
8.23729e-06
5.66094e-06
5.39695e-06
7.5909e-06
1.86708e-05
6.89966e-06
4.1978e-07
1.45135e-07
4.78057e-06
1.24639e-05
2.67357e-05
4.41344e-05
5.59213e-05
6.20435e-05
6.50385e-05
6.60929e-05
6.61e-05
6.53693e-05
6.41484e-05
6.27288e-05
6.14264e-05
6.02235e-05
5.91221e-05
5.80762e-05
5.6998e-05
5.58333e-05
5.43155e-05
5.24353e-05
5.02476e-05
4.79386e-05
4.54793e-05
4.23024e-05
3.46816e-05
2.38572e-05
1.83109e-05
1.13063e-05
6.31795e-06
5.11168e-06
6.79602e-06
1.60756e-05
7.09272e-06
4.66045e-07
1.45508e-07
4.74151e-06
1.23029e-05
2.64265e-05
4.40554e-05
5.59718e-05
6.19131e-05
6.46847e-05
6.54993e-05
6.54501e-05
6.49098e-05
6.4242e-05
6.35248e-05
6.28152e-05
6.20024e-05
6.11586e-05
6.03327e-05
5.94589e-05
5.85356e-05
5.68165e-05
5.41839e-05
5.1535e-05
4.85446e-05
4.62221e-05
4.45264e-05
3.81559e-05
2.73753e-05
2.26434e-05
1.44577e-05
7.70264e-06
5.46758e-06
6.3458e-06
1.46344e-05
7.31196e-06
5.25225e-07
1.51649e-07
4.76814e-06
1.23461e-05
2.666e-05
4.45997e-05
5.63453e-05
6.18948e-05
6.43684e-05
6.49276e-05
6.48152e-05
6.43055e-05
6.37628e-05
6.33544e-05
6.30987e-05
6.29793e-05
6.27298e-05
6.20006e-05
6.02725e-05
5.79819e-05
5.61924e-05
5.50649e-05
5.38356e-05
5.2283e-05
5.01367e-05
4.70848e-05
4.01758e-05
2.98367e-05
2.52065e-05
1.5744e-05
8.3865e-06
5.85824e-06
6.63225e-06
1.64043e-05
7.03123e-06
5.43876e-07
1.64031e-07
4.8295e-06
1.26101e-05
2.75416e-05
4.58155e-05
5.6985e-05
6.1891e-05
6.39007e-05
6.40581e-05
6.38063e-05
6.34568e-05
6.31579e-05
6.29997e-05
6.28924e-05
6.27592e-05
6.23812e-05
6.1065e-05
5.92821e-05
5.69594e-05
5.46898e-05
5.37218e-05
5.33892e-05
5.23495e-05
4.95229e-05
4.61311e-05
4.13419e-05
3.90437e-05
2.77063e-05
1.4374e-05
8.30869e-06
6.27776e-06
7.91253e-06
2.05933e-05
6.91938e-06
5.40171e-07
1.86984e-07
5.01809e-06
1.32917e-05
2.93108e-05
4.77844e-05
5.80441e-05
6.22837e-05
6.38017e-05
6.3654e-05
6.31016e-05
6.26735e-05
6.25188e-05
6.25376e-05
6.28663e-05
6.21439e-05
5.96758e-05
5.69872e-05
5.40073e-05
5.09879e-05
4.95838e-05
5.01546e-05
5.15357e-05
5.26797e-05
5.45178e-05
5.356e-05
5.4825e-05
4.99836e-05
3.02985e-05
1.59748e-05
9.10017e-06
6.78276e-06
8.49322e-06
2.19585e-05
6.86468e-06
5.38286e-07
2.16433e-07
5.25294e-06
1.42187e-05
3.16225e-05
4.98457e-05
5.89273e-05
6.25183e-05
6.34654e-05
6.31044e-05
6.22343e-05
6.18163e-05
6.1695e-05
6.1597e-05
6.05069e-05
5.85008e-05
5.46684e-05
4.8502e-05
4.36467e-05
4.28204e-05
4.48977e-05
4.89281e-05
5.45761e-05
6.15173e-05
6.58585e-05
7.23418e-05
7.22213e-05
5.58138e-05
3.68477e-05
1.98006e-05
1.05038e-05
7.5426e-06
9.22789e-06
2.24666e-05
7.12314e-06
5.48976e-07
2.52941e-07
5.55168e-06
1.53052e-05
3.38777e-05
5.13394e-05
5.94127e-05
6.22467e-05
6.25036e-05
6.20312e-05
6.17896e-05
6.17208e-05
6.15223e-05
6.10817e-05
5.94045e-05
5.45323e-05
4.42868e-05
3.47191e-05
3.15694e-05
3.51614e-05
4.35562e-05
5.48823e-05
6.8501e-05
8.08337e-05
8.8762e-05
8.95163e-05
8.28622e-05
6.99208e-05
4.85928e-05
2.65643e-05
1.3025e-05
8.31779e-06
9.53797e-06
2.30212e-05
7.33148e-06
5.46319e-07
2.76216e-07
5.8052e-06
1.61846e-05
3.55009e-05
5.22642e-05
5.95551e-05
6.1803e-05
6.19231e-05
6.10286e-05
5.98795e-05
5.86724e-05
5.7546e-05
5.57795e-05
5.21295e-05
4.53184e-05
3.67475e-05
2.82766e-05
2.46454e-05
2.78472e-05
3.98439e-05
6.2062e-05
8.33984e-05
9.75018e-05
0.000101617
9.85261e-05
9.14178e-05
7.99266e-05
6.08198e-05
3.62609e-05
1.75442e-05
9.54431e-06
9.63748e-06
2.29784e-05
7.4287e-06
5.3912e-07
2.77474e-07
5.82541e-06
1.63009e-05
3.57529e-05
5.21906e-05
5.90695e-05
6.10328e-05
6.0725e-05
5.94793e-05
5.78974e-05
5.64599e-05
5.49975e-05
5.31809e-05
5.01725e-05
4.48909e-05
3.71765e-05
2.91549e-05
2.30388e-05
2.1435e-05
2.75161e-05
4.30428e-05
6.59509e-05
8.58925e-05
9.79194e-05
0.000100921
9.64645e-05
8.61487e-05
6.98949e-05
4.71211e-05
2.51592e-05
1.29961e-05
1.06926e-05
2.36459e-05
7.48819e-06
5.45768e-07
2.77856e-07
5.83649e-06
1.62551e-05
3.54923e-05
5.15726e-05
5.82294e-05
6.01916e-05
5.99352e-05
5.87416e-05
5.73421e-05
5.60615e-05
5.4971e-05
5.39009e-05
5.23874e-05
4.9561e-05
4.41651e-05
3.56213e-05
2.62692e-05
1.99385e-05
1.85548e-05
2.57697e-05
4.37131e-05
6.73273e-05
9.27918e-05
0.00010359
0.000100098
8.79746e-05
7.02567e-05
4.92875e-05
2.96359e-05
1.73024e-05
1.47557e-05
2.88433e-05
7.39704e-06
5.49043e-07
2.77132e-07
5.8044e-06
1.60545e-05
3.50507e-05
5.10714e-05
5.78132e-05
5.98251e-05
5.96617e-05
5.8606e-05
5.7349e-05
5.62106e-05
5.5248e-05
5.4286e-05
5.29067e-05
5.03845e-05
4.58096e-05
3.8755e-05
3.01701e-05
2.25149e-05
1.82897e-05
2.00916e-05
3.0178e-05
4.81798e-05
7.26936e-05
9.09978e-05
9.38052e-05
8.34132e-05
6.5983e-05
4.69251e-05
3.09204e-05
2.11515e-05
2.03274e-05
3.25779e-05
7.41887e-06
5.43942e-07
2.72764e-07
5.75804e-06
1.58189e-05
3.44729e-05
5.04876e-05
5.73586e-05
5.94841e-05
5.93985e-05
5.83605e-05
5.70762e-05
5.58847e-05
5.4851e-05
5.3792e-05
5.24176e-05
5.04119e-05
4.74554e-05
4.30792e-05
3.63058e-05
2.74586e-05
2.00527e-05
1.67983e-05
2.01358e-05
3.22819e-05
5.11458e-05
7.3396e-05
8.36593e-05
7.84931e-05
6.39117e-05
4.67941e-05
3.25798e-05
2.45007e-05
2.517e-05
3.43535e-05
7.5664e-06
5.47482e-07
2.71722e-07
5.67332e-06
1.54825e-05
3.37719e-05
4.99441e-05
5.68588e-05
5.89852e-05
5.88667e-05
5.78065e-05
5.65005e-05
5.53178e-05
5.44032e-05
5.36178e-05
5.26408e-05
5.09885e-05
4.82145e-05
4.38931e-05
3.85803e-05
3.31579e-05
2.59532e-05
1.86588e-05
1.77257e-05
2.1371e-05
2.92389e-05
4.76135e-05
6.71301e-05
7.16587e-05
6.24014e-05
4.77676e-05
3.4878e-05
2.77505e-05
2.928e-05
3.59937e-05
7.94254e-06
5.88694e-07
2.80574e-07
5.63711e-06
1.53845e-05
3.35483e-05
4.96189e-05
5.64541e-05
5.86155e-05
5.86061e-05
5.77301e-05
5.6653e-05
5.56961e-05
5.49197e-05
5.40991e-05
5.28488e-05
5.07425e-05
4.75396e-05
4.3447e-05
3.96288e-05
3.58039e-05
3.04018e-05
2.2972e-05
1.94806e-05
1.9346e-05
2.16779e-05
3.1559e-05
4.77872e-05
5.92303e-05
5.72434e-05
4.71562e-05
3.68157e-05
3.17511e-05
3.4996e-05
3.77341e-05
8.2658e-06
6.1425e-07
3.0513e-07
5.7059e-06
1.55828e-05
3.39791e-05
4.98149e-05
5.63576e-05
5.84513e-05
5.8517e-05
5.78216e-05
5.70239e-05
5.63332e-05
5.57943e-05
5.50216e-05
5.38783e-05
5.07915e-05
4.63288e-05
4.32031e-05
4.12166e-05
3.89164e-05
3.45755e-05
2.79953e-05
2.13766e-05
1.96749e-05
2.04584e-05
2.38835e-05
3.46053e-05
4.6356e-05
5.07813e-05
4.62091e-05
3.95561e-05
3.68836e-05
4.17011e-05
3.75985e-05
8.49047e-06
6.15853e-07
3.40776e-07
5.85052e-06
1.61028e-05
3.48963e-05
5.01929e-05
5.64776e-05
5.85866e-05
5.88119e-05
5.84614e-05
5.79084e-05
5.74337e-05
5.70644e-05
5.59506e-05
5.2878e-05
4.86152e-05
4.37283e-05
3.90748e-05
3.73722e-05
3.88005e-05
3.98379e-05
3.62563e-05
2.84112e-05
2.28741e-05
2.01364e-05
2.11219e-05
2.76984e-05
3.68815e-05
4.32204e-05
4.4346e-05
4.23639e-05
4.24358e-05
4.72898e-05
3.66494e-05
8.46565e-06
6.05967e-07
3.67981e-07
5.93351e-06
1.64418e-05
3.53442e-05
5.01798e-05
5.63215e-05
5.84196e-05
5.8724e-05
5.83148e-05
5.78264e-05
5.74107e-05
5.67797e-05
5.52792e-05
5.16286e-05
4.47784e-05
3.71273e-05
3.31487e-05
3.41335e-05
3.87871e-05
4.33636e-05
4.39975e-05
3.88938e-05
2.8215e-05
2.13992e-05
2.11042e-05
2.51292e-05
3.10659e-05
3.62845e-05
3.99436e-05
4.28147e-05
4.68706e-05
5.09605e-05
3.44217e-05
8.24657e-06
5.63119e-07
3.74733e-07
5.95178e-06
1.64619e-05
3.51988e-05
4.99238e-05
5.60096e-05
5.80194e-05
5.81757e-05
5.72956e-05
5.61803e-05
5.54689e-05
5.46432e-05
5.25442e-05
4.8489e-05
4.25226e-05
3.55522e-05
3.02198e-05
2.94109e-05
3.4236e-05
4.3333e-05
5.19188e-05
5.11186e-05
3.58379e-05
2.45788e-05
2.13609e-05
2.27792e-05
2.6946e-05
3.18084e-05
3.58395e-05
4.02276e-05
4.68011e-05
5.17071e-05
3.1951e-05
8.01869e-06
5.16213e-07
3.7259e-07
5.92126e-06
1.63864e-05
3.47628e-05
4.93211e-05
5.53511e-05
5.73013e-05
5.72458e-05
5.66046e-05
5.58275e-05
5.46759e-05
5.35084e-05
5.2201e-05
4.93429e-05
4.37886e-05
3.68351e-05
3.06395e-05
2.70456e-05
2.7655e-05
3.40463e-05
4.69411e-05
5.29563e-05
4.29739e-05
3.18572e-05
2.42439e-05
2.19408e-05
2.35512e-05
2.69313e-05
3.10982e-05
3.65152e-05
4.39703e-05
4.95892e-05
3.10996e-05
7.99446e-06
5.10047e-07
3.40687e-07
5.75244e-06
1.5619e-05
3.31713e-05
4.82039e-05
5.48709e-05
5.70563e-05
5.71287e-05
5.59868e-05
5.45628e-05
5.32377e-05
5.21442e-05
5.1116e-05
4.97926e-05
4.74686e-05
4.27906e-05
3.57002e-05
2.87498e-05
2.4714e-05
2.49345e-05
3.13291e-05
4.22043e-05
4.64505e-05
4.07126e-05
3.09895e-05
2.42753e-05
2.21724e-05
2.34469e-05
2.65483e-05
3.14245e-05
3.91909e-05
4.70901e-05
3.12754e-05
8.08123e-06
5.19211e-07
3.10041e-07
5.53258e-06
1.48583e-05
3.16372e-05
4.70079e-05
5.41411e-05
5.64291e-05
5.62584e-05
5.51052e-05
5.37717e-05
5.27554e-05
5.2014e-05
5.13589e-05
5.05862e-05
4.92973e-05
4.67896e-05
4.24387e-05
3.5568e-05
2.8656e-05
2.41316e-05
2.32937e-05
2.7969e-05
3.74179e-05
4.35938e-05
3.94847e-05
3.11537e-05
2.50978e-05
2.23892e-05
2.29886e-05
2.63981e-05
3.31489e-05
4.3191e-05
3.53337e-05
8.5867e-06
5.82926e-07
2.77741e-07
5.25628e-06
1.38506e-05
3.01793e-05
4.58387e-05
5.32497e-05
5.5998e-05
5.65156e-05
5.58412e-05
5.46031e-05
5.31415e-05
5.16567e-05
5.04136e-05
4.95773e-05
4.89468e-05
4.77536e-05
4.54307e-05
4.28498e-05
3.72975e-05
2.96112e-05
2.39366e-05
2.43465e-05
2.92143e-05
3.47206e-05
4.11305e-05
3.79334e-05
3.09878e-05
2.57579e-05
2.25824e-05
2.22965e-05
2.67699e-05
3.81026e-05
3.91909e-05
9.25905e-06
6.59772e-07
2.69176e-07
5.18105e-06
1.3363e-05
2.85199e-05
4.42429e-05
5.24837e-05
5.55945e-05
5.62236e-05
5.55553e-05
5.42995e-05
5.29159e-05
5.15508e-05
5.02777e-05
4.89997e-05
4.75828e-05
4.70029e-05
4.74977e-05
4.71045e-05
4.51185e-05
3.97371e-05
3.14624e-05
2.49502e-05
2.57953e-05
3.0853e-05
3.49137e-05
4.01738e-05
3.53354e-05
2.74709e-05
2.29088e-05
2.13761e-05
2.44597e-05
3.50022e-05
4.10551e-05
9.66183e-06
7.15959e-07
2.69826e-07
5.05757e-06
1.30563e-05
2.82877e-05
4.42512e-05
5.20898e-05
5.49116e-05
5.54357e-05
5.47073e-05
5.34614e-05
5.20098e-05
5.04849e-05
4.85667e-05
4.70363e-05
4.74243e-05
4.92866e-05
5.13619e-05
5.22666e-05
5.08277e-05
4.68313e-05
3.94666e-05
3.05473e-05
2.86657e-05
2.91577e-05
2.97098e-05
3.6303e-05
3.86967e-05
3.0991e-05
2.35588e-05
2.11112e-05
2.31376e-05
3.31836e-05
4.18579e-05
9.79739e-06
7.42965e-07
2.91316e-07
5.1728e-06
1.33777e-05
2.87931e-05
4.44237e-05
5.17001e-05
5.41833e-05
5.43653e-05
5.35677e-05
5.22851e-05
5.04054e-05
4.7773e-05
4.59997e-05
4.56834e-05
4.68229e-05
5.00244e-05
5.48477e-05
5.99087e-05
6.25251e-05
5.94394e-05
5.018e-05
3.88742e-05
3.47667e-05
3.06165e-05
2.7316e-05
3.16235e-05
3.64591e-05
3.45294e-05
2.69427e-05
2.20203e-05
2.37957e-05
3.47478e-05
4.24328e-05
1.00774e-05
7.43569e-07
3.35664e-07
5.36951e-06
1.39592e-05
3.01088e-05
4.54404e-05
5.18186e-05
5.35613e-05
5.34117e-05
5.21256e-05
4.99271e-05
4.73769e-05
4.47332e-05
4.21458e-05
4.17208e-05
4.45457e-05
5.05742e-05
5.85651e-05
6.66538e-05
7.20693e-05
7.14097e-05
6.42894e-05
5.31723e-05
4.61588e-05
3.70998e-05
3.00739e-05
3.12225e-05
3.53405e-05
3.47486e-05
2.84979e-05
2.37195e-05
2.62505e-05
3.88147e-05
4.23395e-05
1.01058e-05
7.24292e-07
3.94967e-07
5.68515e-06
1.50414e-05
3.22983e-05
4.66721e-05
5.17985e-05
5.27926e-05
5.18255e-05
5.02881e-05
4.80793e-05
4.40118e-05
3.85528e-05
3.49276e-05
3.60555e-05
4.29373e-05
5.47993e-05
6.89276e-05
8.12166e-05
8.78888e-05
8.674e-05
7.85563e-05
6.65508e-05
5.49468e-05
4.27038e-05
3.42202e-05
3.27899e-05
3.53245e-05
3.5592e-05
3.11528e-05
2.75969e-05
3.03823e-05
4.22413e-05
4.23655e-05
1.00196e-05
6.76242e-07
4.55224e-07
5.98019e-06
1.61526e-05
3.45208e-05
4.75834e-05
5.17491e-05
5.22823e-05
5.07632e-05
4.80933e-05
4.35124e-05
3.666e-05
2.99173e-05
2.78187e-05
3.20594e-05
4.30759e-05
6.09562e-05
8.08849e-05
9.58322e-05
0.000102044
9.95762e-05
9.25252e-05
7.78035e-05
6.04166e-05
4.6807e-05
3.8112e-05
3.52376e-05
3.66059e-05
3.75021e-05
3.47664e-05
3.19777e-05
3.52154e-05
4.65457e-05
4.0939e-05
9.71743e-06
6.07728e-07
4.79434e-07
6.11617e-06
1.68465e-05
3.58777e-05
4.84248e-05
5.12522e-05
5.01074e-05
4.77245e-05
4.44509e-05
3.96885e-05
3.29237e-05
2.63086e-05
2.32408e-05
2.71128e-05
4.02648e-05
6.11358e-05
8.2699e-05
9.83614e-05
0.000105874
0.000105714
0.000101074
8.56822e-05
6.66691e-05
5.24509e-05
4.27318e-05
3.81723e-05
3.8004e-05
3.91143e-05
3.83408e-05
3.69439e-05
4.08528e-05
5.0622e-05
3.90489e-05
9.39448e-06
5.5227e-07
4.79408e-07
6.1608e-06
1.73442e-05
3.75523e-05
4.85085e-05
5.02891e-05
4.93232e-05
4.7214e-05
4.44183e-05
4.00761e-05
3.30968e-05
2.5798e-05
2.17457e-05
2.23805e-05
3.01992e-05
4.80164e-05
7.14939e-05
9.11057e-05
0.000101469
0.000103131
0.00010063
8.85403e-05
7.19144e-05
5.84014e-05
4.8445e-05
4.27544e-05
4.11935e-05
4.19469e-05
4.26259e-05
4.3393e-05
4.70767e-05
5.34677e-05
3.62086e-05
9.0814e-06
5.19265e-07
4.79129e-07
6.15176e-06
1.73784e-05
3.7354e-05
4.7879e-05
4.99072e-05
4.9116e-05
4.7202e-05
4.46086e-05
4.07444e-05
3.48473e-05
2.72763e-05
2.1043e-05
2.01479e-05
2.60106e-05
3.97427e-05
6.20003e-05
8.57171e-05
0.000101341
0.000107329
9.99626e-05
8.6034e-05
7.38911e-05
6.29826e-05
5.36289e-05
4.76145e-05
4.53736e-05
4.59457e-05
4.76962e-05
5.01565e-05
5.41877e-05
5.60566e-05
3.50217e-05
8.83768e-06
5.08144e-07
4.96562e-07
6.22167e-06
1.77309e-05
3.76696e-05
4.80404e-05
4.99013e-05
4.90224e-05
4.72769e-05
4.51867e-05
4.2168e-05
3.65351e-05
2.82934e-05
2.09684e-05
1.79164e-05
2.13587e-05
3.36362e-05
5.52818e-05
8.09238e-05
0.000101363
0.00010338
9.33588e-05
8.37223e-05
7.38541e-05
6.47986e-05
5.7166e-05
5.17132e-05
4.93659e-05
4.99521e-05
5.24185e-05
5.5832e-05
5.94673e-05
5.84259e-05
3.41083e-05
8.75609e-06
5.05472e-07
5.01205e-07
6.24384e-06
1.80174e-05
3.79401e-05
4.74836e-05
4.92322e-05
4.86815e-05
4.73888e-05
4.5823e-05
4.31671e-05
3.82888e-05
3.07434e-05
2.27432e-05
1.77013e-05
1.75254e-05
2.49629e-05
4.31159e-05
7.03698e-05
9.09241e-05
9.23182e-05
8.77636e-05
8.10852e-05
7.38279e-05
6.65047e-05
6.02743e-05
5.54156e-05
5.29419e-05
5.31727e-05
5.56886e-05
5.95797e-05
6.30972e-05
6.05217e-05
3.35138e-05
8.64731e-06
5.0842e-07
5.00889e-07
6.25672e-06
1.81706e-05
3.77307e-05
4.7162e-05
4.92551e-05
4.90044e-05
4.78835e-05
4.65325e-05
4.48601e-05
4.1836e-05
3.58775e-05
2.69902e-05
1.9142e-05
1.55802e-05
1.79749e-05
2.95307e-05
5.44929e-05
7.84339e-05
8.48303e-05
8.40716e-05
7.9028e-05
7.30597e-05
6.7152e-05
6.19796e-05
5.81477e-05
5.6065e-05
5.64558e-05
5.91571e-05
6.32285e-05
6.64492e-05
6.26015e-05
3.39225e-05
8.67188e-06
5.20772e-07
5.02879e-07
6.24873e-06
1.81111e-05
3.75387e-05
4.69314e-05
4.9167e-05
4.91126e-05
4.83324e-05
4.74619e-05
4.64608e-05
4.45839e-05
4.02398e-05
3.22201e-05
2.26569e-05
1.63238e-05
1.50314e-05
2.09623e-05
3.86419e-05
6.16e-05
7.49799e-05
8.16205e-05
7.95969e-05
7.28633e-05
6.68287e-05
6.21897e-05
5.92555e-05
5.79753e-05
5.86944e-05
6.17363e-05
6.61922e-05
6.9414e-05
6.47279e-05
3.46297e-05
8.79582e-06
5.25731e-07
5.02238e-07
6.25342e-06
1.82104e-05
3.73441e-05
4.66613e-05
4.92123e-05
4.95365e-05
4.90262e-05
4.82441e-05
4.74553e-05
4.65701e-05
4.45227e-05
3.89459e-05
2.89138e-05
1.92708e-05
1.43578e-05
1.5481e-05
2.50571e-05
4.32846e-05
6.07878e-05
7.56409e-05
7.79757e-05
7.21765e-05
6.59731e-05
6.1724e-05
5.93862e-05
5.85741e-05
5.9828e-05
6.32604e-05
6.81424e-05
7.16712e-05
6.65552e-05
3.51573e-05
8.94169e-06
5.26082e-07
4.96904e-07
6.21333e-06
1.79569e-05
3.67209e-05
4.63663e-05
4.93261e-05
4.99403e-05
4.96182e-05
4.90613e-05
4.85993e-05
4.82386e-05
4.74202e-05
4.47759e-05
3.7235e-05
2.55484e-05
1.66622e-05
1.35083e-05
1.76169e-05
2.89026e-05
4.25901e-05
6.21514e-05
7.29388e-05
7.14472e-05
6.52608e-05
6.05164e-05
5.82551e-05
5.81717e-05
5.97899e-05
6.33903e-05
6.85244e-05
7.23159e-05
6.74228e-05
3.5792e-05
9.05805e-06
5.30086e-07
4.8964e-07
6.18944e-06
1.78492e-05
3.63364e-05
4.62144e-05
4.9484e-05
5.03795e-05
5.03055e-05
5.00017e-05
4.9745e-05
4.95484e-05
4.91035e-05
4.79877e-05
4.42683e-05
3.44778e-05
2.21155e-05
1.4643e-05
1.41343e-05
1.96423e-05
2.90269e-05
4.37721e-05
5.89019e-05
6.47953e-05
6.31619e-05
5.8855e-05
5.57353e-05
5.55365e-05
5.79982e-05
6.27482e-05
6.85797e-05
7.25497e-05
6.78522e-05
3.62038e-05
9.22232e-06
5.315e-07
4.72448e-07
6.10409e-06
1.73967e-05
3.54712e-05
4.60168e-05
4.97647e-05
5.09263e-05
5.09499e-05
5.0652e-05
5.04436e-05
5.04529e-05
5.05273e-05
5.01689e-05
4.93678e-05
4.56792e-05
3.4841e-05
2.16139e-05
1.42803e-05
1.40644e-05
1.84612e-05
2.65142e-05
4.21958e-05
5.35841e-05
5.67858e-05
5.63756e-05
5.46464e-05
5.3841e-05
5.59633e-05
6.08463e-05
6.73652e-05
7.29583e-05
6.88165e-05
3.67793e-05
9.42497e-06
5.32495e-07
4.52849e-07
6.01938e-06
1.69607e-05
3.46058e-05
4.57574e-05
4.99863e-05
5.14735e-05
5.17673e-05
5.17262e-05
5.17673e-05
5.19907e-05
5.25383e-05
5.30134e-05
5.2554e-05
5.15368e-05
4.79856e-05
3.58201e-05
2.11629e-05
1.39167e-05
1.40152e-05
1.83929e-05
2.55627e-05
3.88317e-05
4.72119e-05
4.95587e-05
5.0739e-05
5.19245e-05
5.47989e-05
6.03647e-05
6.82616e-05
7.40444e-05
6.96704e-05
3.6993e-05
9.46565e-06
5.25097e-07
4.28429e-07
5.90331e-06
1.63695e-05
3.35794e-05
4.54391e-05
5.02068e-05
5.19927e-05
5.24377e-05
5.25241e-05
5.27452e-05
5.30764e-05
5.37465e-05
5.46671e-05
5.53904e-05
5.46722e-05
5.19724e-05
4.71729e-05
3.47689e-05
1.97908e-05
1.42792e-05
1.49096e-05
1.77621e-05
2.38052e-05
3.57519e-05
4.34289e-05
4.52543e-05
4.76288e-05
5.22108e-05
5.9112e-05
6.7637e-05
7.36296e-05
6.79594e-05
3.54353e-05
9.39526e-06
4.96107e-07
3.94996e-07
5.73085e-06
1.56681e-05
3.25596e-05
4.52086e-05
5.04444e-05
5.23929e-05
5.29027e-05
5.30346e-05
5.33522e-05
5.38071e-05
5.46895e-05
5.57475e-05
5.6738e-05
5.72955e-05
5.6277e-05
5.21076e-05
4.56144e-05
3.34886e-05
2.00119e-05
1.577e-05
1.40629e-05
1.55846e-05
2.33448e-05
3.33681e-05
4.1327e-05
4.5381e-05
4.9862e-05
5.74992e-05
6.62701e-05
7.0504e-05
6.46807e-05
3.50484e-05
9.56456e-06
4.79302e-07
3.64095e-07
5.54338e-06
1.49513e-05
3.15263e-05
4.497e-05
5.07318e-05
5.28795e-05
5.34489e-05
5.35874e-05
5.38955e-05
5.43823e-05
5.53307e-05
5.6563e-05
5.77977e-05
5.8583e-05
5.84169e-05
5.69403e-05
5.26707e-05
4.56009e-05
3.46745e-05
2.17708e-05
1.6275e-05
1.35869e-05
1.46478e-05
2.08999e-05
2.95093e-05
3.88003e-05
4.71494e-05
5.44367e-05
6.10992e-05
6.6297e-05
6.42699e-05
3.63344e-05
9.68089e-06
4.81237e-07
3.28791e-07
5.31468e-06
1.40942e-05
3.02568e-05
4.46137e-05
5.10331e-05
5.34153e-05
5.40809e-05
5.42683e-05
5.46101e-05
5.51871e-05
5.6225e-05
5.75378e-05
5.89212e-05
6.01673e-05
6.07948e-05
5.98082e-05
5.66775e-05
5.18503e-05
4.49189e-05
3.51263e-05
2.34803e-05
1.69323e-05
1.37547e-05
1.44351e-05
1.92742e-05
2.70542e-05
3.73787e-05
4.82508e-05
5.65049e-05
6.35434e-05
6.37904e-05
3.71197e-05
1.00215e-05
5.09297e-07
2.95203e-07
5.0847e-06
1.33025e-05
2.89131e-05
4.37106e-05
5.03818e-05
5.27298e-05
5.33949e-05
5.36334e-05
5.403e-05
5.48514e-05
5.60876e-05
5.75974e-05
5.91332e-05
6.06339e-05
6.17324e-05
6.17638e-05
5.95864e-05
5.42705e-05
4.73978e-05
4.02607e-05
3.32353e-05
2.55201e-05
1.78694e-05
1.4973e-05
1.55297e-05
1.8456e-05
2.44727e-05
3.3783e-05
4.48464e-05
5.40109e-05
5.86754e-05
3.82419e-05
1.03175e-05
5.70069e-07
2.73617e-07
4.86084e-06
1.29026e-05
2.84801e-05
4.33194e-05
5.01851e-05
5.26225e-05
5.32937e-05
5.35729e-05
5.41041e-05
5.49423e-05
5.61892e-05
5.7783e-05
5.94991e-05
6.10789e-05
6.21463e-05
6.2099e-05
6.01918e-05
5.56691e-05
4.96374e-05
4.35847e-05
3.83252e-05
3.26277e-05
2.60786e-05
2.24788e-05
1.83099e-05
1.54537e-05
1.71238e-05
2.17749e-05
3.05425e-05
4.28454e-05
5.19094e-05
4.23362e-05
1.0881e-05
6.83098e-07
2.69493e-07
4.76872e-06
1.24726e-05
2.7853e-05
4.32338e-05
5.02222e-05
5.27014e-05
5.34034e-05
5.37164e-05
5.425e-05
5.52369e-05
5.67181e-05
5.86031e-05
6.048e-05
6.21842e-05
6.33933e-05
6.35301e-05
6.17036e-05
5.71706e-05
5.04889e-05
4.52479e-05
4.13871e-05
3.75711e-05
3.26146e-05
3.23018e-05
2.73329e-05
1.92672e-05
1.60762e-05
1.65827e-05
2.06379e-05
2.94811e-05
4.39863e-05
4.74447e-05
1.16567e-05
8.37848e-07
2.72316e-07
4.67979e-06
1.23961e-05
2.77152e-05
4.2702e-05
4.95857e-05
5.21536e-05
5.29997e-05
5.34574e-05
5.41414e-05
5.52647e-05
5.67958e-05
5.85837e-05
6.04869e-05
6.22988e-05
6.35697e-05
6.36049e-05
6.14667e-05
5.60865e-05
4.8897e-05
4.3667e-05
4.13957e-05
4.01488e-05
3.82658e-05
4.28849e-05
4.15907e-05
2.84849e-05
2.03435e-05
1.61802e-05
1.59369e-05
2.05387e-05
3.31528e-05
4.98397e-05
1.22885e-05
9.80864e-07
2.90628e-07
4.7349e-06
1.26307e-05
2.81525e-05
4.27416e-05
4.9324e-05
5.19636e-05
5.29304e-05
5.35201e-05
5.42997e-05
5.54474e-05
5.70634e-05
5.90228e-05
6.11197e-05
6.30377e-05
6.41125e-05
6.328e-05
5.97109e-05
5.25831e-05
4.54193e-05
4.11543e-05
4.00675e-05
4.09971e-05
4.31971e-05
5.32354e-05
5.68474e-05
4.14895e-05
2.72089e-05
1.75486e-05
1.45757e-05
1.6904e-05
2.81756e-05
5.19916e-05
1.20336e-05
1.02414e-06
3.14029e-07
4.80639e-06
1.28844e-05
2.85918e-05
4.27953e-05
4.9072e-05
5.17092e-05
5.28411e-05
5.35666e-05
5.43338e-05
5.5436e-05
5.70087e-05
5.88787e-05
6.08824e-05
6.27519e-05
6.39588e-05
6.203e-05
5.57343e-05
4.76124e-05
4.00476e-05
3.66463e-05
3.75401e-05
4.14974e-05
5.32994e-05
6.29252e-05
5.79867e-05
5.00803e-05
3.50255e-05
2.06662e-05
1.45857e-05
1.67558e-05
3.06041e-05
5.12211e-05
1.15781e-05
1.00723e-06
3.38235e-07
4.91911e-06
1.32314e-05
2.89409e-05
4.26095e-05
4.87994e-05
5.14866e-05
5.26848e-05
5.34086e-05
5.41309e-05
5.51273e-05
5.65164e-05
5.81933e-05
5.99849e-05
6.13789e-05
6.10807e-05
5.85488e-05
5.15811e-05
4.13057e-05
3.40314e-05
3.27698e-05
3.66964e-05
4.47031e-05
5.83626e-05
6.54353e-05
6.01915e-05
5.23565e-05
3.78318e-05
2.31869e-05
1.62117e-05
1.86258e-05
3.49697e-05
4.82495e-05
1.10321e-05
9.35478e-07
3.6792e-07
5.0409e-06
1.3633e-05
2.94543e-05
4.27407e-05
4.88773e-05
5.15483e-05
5.27644e-05
5.3412e-05
5.40058e-05
5.47958e-05
5.59852e-05
5.7551e-05
5.92619e-05
6.04143e-05
5.95794e-05
5.48892e-05
4.51825e-05
3.48574e-05
2.91062e-05
2.93874e-05
3.5024e-05
4.69961e-05
5.83271e-05
6.13926e-05
6.19104e-05
5.47514e-05
4.01046e-05
2.57446e-05
1.87355e-05
2.20385e-05
4.13202e-05
4.41825e-05
1.04172e-05
8.49719e-07
3.81935e-07
5.10805e-06
1.36339e-05
2.9529e-05
4.27232e-05
4.86309e-05
5.13211e-05
5.25002e-05
5.30221e-05
5.31698e-05
5.35522e-05
5.45039e-05
5.62664e-05
5.78551e-05
5.87944e-05
5.81619e-05
5.36664e-05
4.4347e-05
3.31738e-05
2.63658e-05
2.62209e-05
3.20808e-05
4.26577e-05
5.29173e-05
5.8114e-05
5.87418e-05
5.19298e-05
3.94178e-05
2.74991e-05
2.21967e-05
2.78383e-05
4.93913e-05
3.91652e-05
9.8155e-06
7.56503e-07
3.82518e-07
5.11712e-06
1.36222e-05
2.88027e-05
4.18e-05
4.7948e-05
5.07793e-05
5.19807e-05
5.22858e-05
5.19394e-05
5.20573e-05
5.32035e-05
5.44007e-05
5.51801e-05
5.54498e-05
5.42946e-05
5.06154e-05
4.30665e-05
3.31306e-05
2.5118e-05
2.30992e-05
2.74855e-05
3.67105e-05
4.64616e-05
5.30399e-05
5.37017e-05
4.7794e-05
3.81346e-05
2.99232e-05
2.79794e-05
3.73405e-05
5.57494e-05
3.51958e-05
9.32747e-06
6.63145e-07