/*--------------------------------*- C++ -*----------------------------------*\
| =========                 |                                                 |
| \\      /  F ield         | OpenFOAM: The Open Source CFD Toolbox           |
|  \\    /   O peration     | Version:  2.0.x                                 |
|   \\  /    A nd           | Web:      www.OpenFOAM.org                      |
|    \\/     M anipulation  |                                                 |
\*---------------------------------------------------------------------------*/
FoamFile
{
    version     2.0;
    format      ascii;
    class       volScalarField;
    location    "300";
    object      k;
}
// * * * * * * * * * * * * * * * * * * * * * * * * * * * * * * * * * * * * * //

dimensions      [0 2 -2 0 0 0 0];

internalField   nonuniform List<scalar> 
78750
(
1.49598e-05
0.000119737
0.000178434
0.000216816
0.000249109
0.000277911
0.00030454
0.000329231
0.000351953
0.000371407
0.000386849
0.000399379
0.000410295
0.000415498
0.000426652
0.000436233
0.000440422
0.000444466
0.000444075
0.000442363
0.000439333
0.000435548
0.000430796
0.000425473
0.000420068
0.000414504
0.000408679
0.000402524
0.000395907
0.000388674
0.000380461
0.000370911
0.000356555
0.000299735
6.3735e-05
8.56093e-06
6.80281e-05
0.000125694
0.000190621
0.00025664
0.000319812
0.000375806
0.00042521
0.000472116
0.000507245
0.000534076
0.00055509
0.000568593
0.000574289
0.000570786
0.000561803
0.000552376
0.000542645
0.000532868
0.00052327
0.000514049
0.000505438
0.000497396
0.000489087
0.000479489
0.000469088
0.000457921
0.000446312
0.000433897
0.000420729
0.000405662
0.000390043
0.000364121
0.000306477
0.000222374
8.97744e-06
0.000116331
0.000239471
0.00035425
0.000451292
0.000526634
0.000580472
0.000615047
0.000629346
0.000632906
0.000630541
0.000620875
0.000606699
0.000591362
0.00057596
0.000558065
0.000538199
0.000517458
0.000496906
0.000477925
0.000461906
0.000448753
0.000439912
0.000435486
0.000434796
0.000435486
0.000436135
0.000435302
0.000430587
0.000420057
0.000406548
0.000389791
0.000366601
0.000344547
0.000367006
3.24074e-05
0.000206683
0.000374145
0.000493043
0.000562199
0.000599962
0.000621023
0.00063242
0.000637655
0.000637365
0.000631556
0.00061891
0.000601451
0.000578262
0.000545241
0.000507829
0.000467892
0.000428033
0.000391776
0.000360947
0.000336755
0.000321998
0.000317365
0.000319833
0.000331527
0.000349396
0.000368858
0.000385579
0.00039693
0.000401896
0.000397899
0.000385089
0.00037036
0.000359999
0.000366144
7.23206e-05
0.000271754
0.000429862
0.000526497
0.000586048
0.000626717
0.000655328
0.000673344
0.000680588
0.00067805
0.000664982
0.000642782
0.000613002
0.000579127
0.000542426
0.000502946
0.000461212
0.00041826
0.000376221
0.00033953
0.000309415
0.000287441
0.00027471
0.000271873
0.000278335
0.000296004
0.000319327
0.000343042
0.000362641
0.000375232
0.000379309
0.000376118
0.000368699
0.000359122
0.000340204
0.000103911
0.000313225
0.000470848
0.000566318
0.000622584
0.000658432
0.000681241
0.000693411
0.000696064
0.000690398
0.000676317
0.000654866
0.000626942
0.000593461
0.000554443
0.000510962
0.000464878
0.000418552
0.000373792
0.000333176
0.000298484
0.000271428
0.000253984
0.000247519
0.000252107
0.000267841
0.000290325
0.000314781
0.000336901
0.000353593
0.000363198
0.000365805
0.000362049
0.000350218
0.000315564
0.000120153
0.000326679
0.000480424
0.000575816
0.00063481
0.000674971
0.000703018
0.000720698
0.000728389
0.000726355
0.000715035
0.0006952
0.000668027
0.000635142
0.000597779
0.000555807
0.000509352
0.00045947
0.00040858
0.000360198
0.000317381
0.00028183
0.00025575
0.00024157
0.000239585
0.000248971
0.000267876
0.000290915
0.000313986
0.000333998
0.000348594
0.0003562
0.000354893
0.000342085
0.000304746
0.000131558
0.000342449
0.000500142
0.000596594
0.000655488
0.000695181
0.000722391
0.000739129
0.000746305
0.000744563
0.000734529
0.000716884
0.000692487
0.000662461
0.000628114
0.000589661
0.000547218
0.000500975
0.000451699
0.000401379
0.000352887
0.000309149
0.000273634
0.000249419
0.000238405
0.000239115
0.000251213
0.000271215
0.000294142
0.000316112
0.00033408
0.000345361
0.000345998
0.000334764
0.000304721
0.000134516
0.000344101
0.00050238
0.000603291
0.000666896
0.000711033
0.000742766
0.000764168
0.000775987
0.000778661
0.00077271
0.000758721
0.000737501
0.00071008
0.000677785
0.0006417
0.000601853
0.000558321
0.000511351
0.000461756
0.000411119
0.00036153
0.000316284
0.000279399
0.000252848
0.000240533
0.000241805
0.000254815
0.000276317
0.000300524
0.000322271
0.000337374
0.000340784
0.000333234
0.000311912
0.000136434
0.000349087
0.000511302
0.000614934
0.000680375
0.000725825
0.000758603
0.000781027
0.000794108
0.000798473
0.000794767
0.000783555
0.00076551
0.000741422
0.000712275
0.000679393
0.000642996
0.000603109
0.000559825
0.000513583
0.000465234
0.000416104
0.000367535
0.00032276
0.000285775
0.000258397
0.000244192
0.000245601
0.000259289
0.000282737
0.000308319
0.000328485
0.000335874
0.00033375
0.000330933
0.000137357
0.000349592
0.0005138
0.000622668
0.00069312
0.000742716
0.000779321
0.000805524
0.000822364
0.000830418
0.000830295
0.000822542
0.000807797
0.000786794
0.000760368
0.000729513
0.000695394
0.00065795
0.000617092
0.000572912
0.000525843
0.00047699
0.000427484
0.000377873
0.000331927
0.000293844
0.000265408
0.000250343
0.000252717
0.000269141
0.000294503
0.000319838
0.00033436
0.00033921
0.0003479
0.000136328
0.000350267
0.00051768
0.000629637
0.000702808
0.000754779
0.000793454
0.00082159
0.00084045
0.000850806
0.000853292
0.00084858
0.0008372
0.000819783
0.000797016
0.00076968
0.000738741
0.000704652
0.000667214
0.000626319
0.000581906
0.000534163
0.000483921
0.000431797
0.000379347
0.000330941
0.000290166
0.000262723
0.000254564
0.000264821
0.000289634
0.000317716
0.00033449
0.000342128
0.000350882
0.000133886
0.000348451
0.000519075
0.000637242
0.000716216
0.000772616
0.000814882
0.000846224
0.00086812
0.000881435
0.000886831
0.000885016
0.0008766
0.000862123
0.00084226
0.000817705
0.00078922
0.000757788
0.00072339
0.000685804
0.000644774
0.000600108
0.000551811
0.000500247
0.000445079
0.000387723
0.000333715
0.000289295
0.000264336
0.000265136
0.000285518
0.000314711
0.000334912
0.000345817
0.000363102
0.000131355
0.000347363
0.000520088
0.000641886
0.000725043
0.000785001
0.000829904
0.000863405
0.000887344
0.000902783
0.000910475
0.00091107
0.000905669
0.000894348
0.000877892
0.000856916
0.000832015
0.000803841
0.000772919
0.000739
0.000701787
0.000660938
0.000616222
0.000567967
0.000515807
0.000457698
0.000396424
0.000339579
0.000295106
0.000276152
0.000287177
0.000314825
0.000335931
0.000353441
0.000386506
0.000128396
0.000347203
0.000524754
0.000653284
0.000741609
0.000805279
0.000853207
0.000889229
0.00091555
0.000933289
0.000943265
0.000946135
0.000942999
0.000934196
0.000920409
0.000902266
0.000880321
0.000855065
0.000827059
0.000796334
0.00076241
0.000724742
0.000682715
0.000635954
0.000584402
0.000526356
0.000460932
0.000394267
0.000334493
0.000298573
0.000294835
0.000315984
0.000340973
0.000363368
0.000396613
0.000124754
0.000347128
0.000530015
0.000663425
0.000755342
0.000821468
0.000871248
0.000909031
0.000937247
0.000956689
0.00096844
0.000973163
0.000971965
0.000965671
0.000954733
0.000939839
0.00092154
0.000900213
0.000876187
0.000849794
0.000820428
0.000787344
0.000749713
0.000706928
0.000658621
0.000602339
0.000534283
0.000456429
0.000377255
0.000319076
0.00030511
0.000322815
0.000347964
0.00036892
0.000400744
0.000122325
0.000351224
0.000542386
0.000682735
0.000778535
0.000846495
0.000897236
0.00093607
0.000966243
0.000988273
0.00100203
0.00100809
0.00100794
0.0010036
0.000994714
0.00098232
0.000967096
0.000949306
0.000929075
0.000906759
0.000881884
0.00085349
0.000820643
0.00078275
0.000739947
0.000690923
0.000629453
0.000551916
0.000463942
0.000374931
0.000324022
0.000326257
0.000349559
0.000377216
0.000445037
0.000122639
0.000358262
0.000557878
0.000702919
0.00080035
0.000868371
0.000918382
0.000956393
0.000986404
0.00100963
0.00102564
0.00103476
0.00103704
0.00103437
0.00102711
0.00101708
0.00100536
0.000991805
0.000976224
0.00095858
0.000938545
0.000914682
0.000885318
0.00084923
0.00080711
0.000759445
0.000702297
0.000633361
0.000554406
0.000458343
0.000373498
0.000347656
0.000362078
0.000401205
0.000501743
0.000127821
0.000375985
0.000586441
0.000735247
0.000832361
0.000898753
0.000946661
0.000982405
0.00101024
0.00103251
0.00104841
0.00105831
0.0010632
0.00106344
0.00106076
0.0010551
0.00104799
0.00103961
0.00102974
0.00101753
0.0010034
0.000984839
0.000958623
0.000922726
0.000877279
0.000823539
0.000760512
0.0006903
0.00061416
0.000522151
0.000426764
0.000378109
0.000382707
0.000422884
0.000519844
0.000138272
0.000398943
0.00061863
0.000767738
0.000861708
0.000924605
0.000969055
0.00100118
0.00102487
0.00104395
0.0010586
0.0010669
0.00107061
0.001071
0.00107017
0.00106998
0.00107157
0.00107519
0.00108126
0.00108726
0.00108776
0.00108167
0.00106041
0.00102059
0.000961222
0.000886926
0.00080643
0.000724198
0.000634762
0.000538113
0.000452098
0.000408024
0.000410758
0.000443939
0.000516519
0.000157655
0.000434936
0.000661307
0.000807141
0.000895765
0.000953931
0.000994182
0.00102196
0.0010403
0.00105339
0.00106297
0.00106877
0.00107084
0.00107076
0.0010705
0.00107196
0.00108034
0.00110053
0.00113051
0.00116512
0.00119193
0.00119967
0.00118943
0.00115108
0.00108529
0.000997072
0.000897037
0.000785334
0.000665975
0.000552613
0.000466862
0.000428066
0.000429743
0.000455188
0.000514775
0.000182535
0.000472079
0.000698675
0.000837975
0.000920528
0.000974089
0.00101047
0.00103429
0.00104799
0.00105425
0.00105671
0.00105488
0.00104945
0.00104278
0.00103888
0.00104176
0.00106145
0.00110836
0.00118402
0.00126327
0.00131753
0.00134015
0.00133069
0.00128814
0.00121944
0.00113193
0.00102265
0.000883673
0.000719519
0.000573856
0.000483219
0.000446107
0.000447473
0.000470672
0.000524975
0.000213398
0.000508953
0.000731638
0.000864666
0.000942739
0.000993159
0.0010269
0.00104792
0.00105824
0.0010598
0.00105628
0.00104555
0.00103169
0.00101542
0.00100049
0.000995138
0.00101671
0.00109211
0.00121687
0.00134385
0.00143635
0.00147516
0.00147227
0.00144023
0.00138248
0.001299
0.00118663
0.00103825
0.000846408
0.000639575
0.000507914
0.000466525
0.000466431
0.000486174
0.000522355
0.000233093
0.000531766
0.00074854
0.000877208
0.000953303
0.00100285
0.00103603
0.00105631
0.00106548
0.001065
0.00105676
0.00104425
0.00102636
0.00100527
0.000983347
0.000965207
0.000959191
0.00101794
0.00117516
0.00134321
0.00146252
0.00153
0.00155788
0.00155606
0.00152494
0.00146314
0.0013671
0.00122916
0.00103397
0.000783944
0.000563748
0.000480938
0.000479495
0.000496954
0.000515409
0.000234162
0.000533683
0.000751709
0.000882634
0.000960601
0.0010119
0.00104681
0.00106897
0.00108042
0.0010828
0.00107756
0.00106564
0.00104832
0.00102588
0.000998251
0.000966468
0.000938186
0.000924281
0.000950969
0.00109201
0.0012756
0.00141985
0.00151397
0.00156551
0.00158612
0.00157408
0.00152278
0.00142499
0.00126486
0.00102201
0.000732371
0.000540494
0.000499745
0.000508161
0.000521767
0.000234486
0.000537306
0.000757374
0.00088912
0.000967594
0.00101933
0.00105471
0.00107745
0.00108969
0.00109336
0.00109046
0.00108267
0.00107102
0.00105587
0.00103658
0.00101137
0.00097778
0.000938479
0.000914434
0.000932811
0.00106408
0.00124691
0.00139933
0.00150364
0.00156498
0.00159134
0.00158415
0.00152942
0.00140955
0.00119919
0.00090667
0.000651397
0.000549872
0.000527614
0.000525036
0.000233873
0.000538252
0.000760558
0.000894575
0.000974804
0.00102795
0.00106459
0.00108853
0.00110189
0.00110658
0.00110446
0.00109722
0.0010862
0.00107232
0.0010558
0.00103592
0.00101094
0.000978727
0.000942447
0.000924313
0.000964531
0.00111056
0.00128811
0.00142504
0.00151588
0.00156979
0.00158351
0.00155336
0.00145737
0.0012728
0.00100442
0.000745985
0.000609843
0.000552873
0.000520345
0.000230176
0.0005382
0.000762725
0.000898708
0.000980297
0.00103442
0.00107196
0.00109696
0.00111175
0.00111844
0.00111898
0.00111531
0.00110839
0.00109902
0.00108731
0.00107242
0.00105247
0.00102481
0.000987619
0.000946415
0.000930575
0.000982415
0.00112568
0.00129208
0.00142242
0.00150836
0.00155351
0.00154812
0.00147583
0.00131474
0.00107193
0.000824986
0.000668762
0.000579287
0.000523815
0.000229289
0.000540062
0.000767603
0.000906095
0.00098914
0.00104404
0.00108201
0.00110715
0.00112189
0.00112848
0.001129
0.00112586
0.00112019
0.00111346
0.00110665
0.00109959
0.00109016
0.00107404
0.00104646
0.00100528
0.000954708
0.00093283
0.00098096
0.00111788
0.00127351
0.00140123
0.00148296
0.00151395
0.00147831
0.00135712
0.00114368
0.000905398
0.000733398
0.000621404
0.000563416
0.000236767
0.000548319
0.000776793
0.000915183
0.000998243
0.00105323
0.00109129
0.00111651
0.00113154
0.00113892
0.00114086
0.00113955
0.001136
0.00113158
0.00112798
0.00112634
0.00112541
0.00111984
0.00110216
0.00106798
0.00101514
0.000958504
0.000950851
0.00100816
0.0011388
0.00127446
0.00139035
0.0014575
0.00145792
0.00136274
0.00118125
0.00096609
0.000793259
0.000667158
0.000588015
0.00025753
0.000565974
0.000791789
0.000928199
0.00101006
0.00106431
0.00110148
0.00112544
0.00113906
0.00114533
0.00114695
0.00114633
0.00114365
0.00114122
0.00114208
0.00115003
0.00116551
0.00118
0.00117597
0.00114634
0.00108971
0.00101429
0.000959778
0.000970143
0.00105636
0.0011773
0.00129145
0.0013804
0.00140711
0.00134527
0.00118802
0.000998845
0.000836516
0.000701767
0.00058957
0.000287696
0.000585942
0.000804555
0.000937786
0.00101811
0.00107212
0.00110896
0.00113238
0.00114495
0.0011498
0.00115012
0.00114909
0.00114548
0.00114223
0.00114388
0.00115593
0.00118322
0.00122488
0.00126503
0.00126259
0.00120475
0.00110337
0.00100512
0.000974789
0.00102042
0.00111715
0.00121946
0.00129875
0.00133588
0.00129736
0.00117839
0.00102188
0.000866227
0.000719584
0.000580206
0.000310738
0.000593862
0.000808107
0.00094143
0.00102321
0.00107793
0.00111458
0.00113773
0.00114966
0.00115337
0.00115189
0.00114874
0.00114168
0.00113214
0.00112073
0.0011227
0.00116056
0.00122603
0.00128634
0.00130919
0.00128776
0.00121496
0.00110913
0.00102621
0.00102456
0.00109038
0.00117345
0.00123809
0.00126225
0.00123385
0.00114535
0.00101993
0.000880641
0.00072326
0.000539266
0.00031646
0.000594094
0.000805299
0.000939048
0.00102357
0.00107952
0.00111653
0.00114072
0.00115373
0.00115904
0.00115867
0.00115335
0.00114454
0.00113243
0.00111812
0.00110602
0.001105
0.00114608
0.00123099
0.00129378
0.0013044
0.00127126
0.00119991
0.00110476
0.00105195
0.0010734
0.0011349
0.00118705
0.00120444
0.0011774
0.00110618
0.00100872
0.000885093
0.000720163
0.000494373
0.000314651
0.000582266
0.000796186
0.000931678
0.00101611
0.0010746
0.00111695
0.0011426
0.00115604
0.00116416
0.00116835
0.00116974
0.00116795
0.0011607
0.00114591
0.0011227
0.00109807
0.00108672
0.00110001
0.0011618
0.00122624
0.00124439
0.00121973
0.00115834
0.00108841
0.00106889
0.00110262
0.00114351
0.00115912
0.0011362
0.0010767
0.000993667
0.00088537
0.0007212
0.000488484
0.00028764
0.000561606
0.000780937
0.000922022
0.00100982
0.00106926
0.00111171
0.00114166
0.0011573
0.00116742
0.00117409
0.00117949
0.0011849
0.00118901
0.00118929
0.00117897
0.00115338
0.00111404
0.00107843
0.00106441
0.00108223
0.00113415
0.00116205
0.00114551
0.00110042
0.00106327
0.00107046
0.00110252
0.00112329
0.00111139
0.00106221
0.000991684
0.000889688
0.000730311
0.000497286
0.000261701
0.000541191
0.00076426
0.000911704
0.00100467
0.00106745
0.00111225
0.00114079
0.00115885
0.00117074
0.00117938
0.00118754
0.0011976
0.00121001
0.00122284
0.00123128
0.00122972
0.001209
0.00116477
0.00110537
0.00105583
0.00104148
0.0010647
0.00109662
0.00109216
0.00106205
0.00105004
0.00106358
0.0010841
0.00108527
0.00105585
0.000994198
0.000903248
0.000759423
0.000558334
0.000234369
0.000522276
0.000752334
0.000904979
0.00100193
0.00106595
0.00111007
0.0011408
0.00116066
0.00117393
0.00118421
0.00119447
0.00120879
0.00122853
0.00125248
0.00127595
0.00129195
0.00129351
0.00127626
0.00123261
0.00116241
0.00109017
0.00105518
0.00105277
0.00106137
0.00105871
0.00104787
0.00104177
0.00105012
0.00105579
0.00104198
0.000993562
0.000918022
0.000797
0.000631919
0.000227112
0.000520518
0.000751162
0.000905275
0.00100298
0.00106767
0.00111175
0.00114246
0.00116308
0.00117632
0.00118705
0.00119885
0.00121806
0.00124785
0.00128764
0.00133156
0.00136917
0.00138958
0.00138711
0.00135965
0.00130056
0.00121131
0.00112086
0.00107304
0.00105963
0.00105594
0.001051
0.00104123
0.00103625
0.00103883
0.00102961
0.000993173
0.000928146
0.000826732
0.000685784
0.000227657
0.000524624
0.000761319
0.000915506
0.00101098
0.00107298
0.00111591
0.00114481
0.00116077
0.00117181
0.00118292
0.00120202
0.00123039
0.00127451
0.00133778
0.00141148
0.00148009
0.00152841
0.0015449
0.00152995
0.0014732
0.00137195
0.00124622
0.00114632
0.0010888
0.00106734
0.0010572
0.00104729
0.00103786
0.00103366
0.00102396
0.000992877
0.000936519
0.000846791
0.000711733
0.000245821
0.000552729
0.000790887
0.000937721
0.00102552
0.00108125
0.00111821
0.00114
0.00115438
0.00116451
0.00117538
0.00119524
0.00123804
0.00130909
0.00141253
0.0015333
0.00164835
0.00173724
0.00178521
0.00178296
0.00173026
0.0016023
0.00142361
0.00126138
0.0011428
0.00108509
0.0010641
0.00105432
0.00104559
0.00103561
0.00102186
0.000990657
0.000941393
0.000862733
0.000712331
0.000283341
0.000591204
0.000822372
0.000958843
0.00103779
0.00108624
0.00111405
0.00113011
0.00113806
0.00114293
0.00115196
0.00117763
0.00123743
0.00134932
0.00149571
0.00165819
0.00180389
0.00191492
0.00198322
0.00199957
0.00196372
0.00185851
0.00168887
0.00148613
0.00129012
0.00116062
0.00110116
0.00107219
0.00105137
0.00103963
0.0010219
0.000989701
0.000943969
0.000861205
0.000693842
0.000333565
0.000637032
0.000856019
0.000979737
0.00104866
0.00108993
0.00111172
0.00112092
0.00112147
0.00111928
0.0011229
0.00115158
0.00123401
0.00138422
0.00158365
0.00178338
0.00194996
0.00207285
0.00214946
0.0021748
0.00214062
0.00204797
0.00189563
0.00169465
0.00147411
0.00129692
0.00119238
0.00113059
0.00108298
0.0010464
0.00102122
0.000987293
0.000940473
0.000852421
0.000647695
0.000384654
0.000670343
0.000874221
0.000986097
0.00104932
0.00108382
0.00110194
0.00110595
0.00109977
0.00108679
0.00108135
0.00110351
0.00119756
0.00138278
0.0015958
0.001795
0.00196669
0.00210196
0.00220089
0.00226037
0.0022693
0.00221064
0.00208001
0.0018825
0.00165056
0.00144457
0.00130398
0.00121065
0.00113637
0.00107164
0.00102237
0.000981548
0.000929023
0.00082707
0.000581893
0.000405233
0.000680818
0.000877651
0.000986528
0.0010433
0.00107784
0.00109568
0.00109898
0.00109085
0.00107605
0.00105417
0.00105217
0.00110606
0.00125181
0.00146336
0.00167159
0.00185286
0.00201542
0.00215321
0.00225861
0.00231784
0.00232028
0.0022421
0.00207781
0.00185208
0.00162168
0.00144056
0.00131058
0.00120779
0.00111718
0.00104012
0.000981039
0.000914885
0.000798547
0.000528647
0.000405216
0.000681874
0.000870759
0.000974844
0.00103527
0.00107201
0.00109138
0.00109598
0.00108915
0.00107291
0.0010507
0.0010287
0.00103072
0.00110386
0.00127052
0.00147451
0.00166292
0.00182983
0.00198582
0.00212694
0.00224077
0.00231223
0.00231775
0.00222616
0.00204573
0.0018196
0.00160763
0.0014371
0.00129992
0.00118167
0.00107902
0.000994239
0.000912882
0.000776256
0.000497017
0.00040498
0.000680315
0.000865519
0.000969355
0.0010286
0.00106515
0.00108529
0.00109123
0.00108623
0.00107324
0.00105198
0.0010279
0.00102446
0.00107356
0.00120739
0.00139271
0.00157245
0.00172916
0.00186961
0.00200343
0.00212996
0.00223798
0.00229967
0.00228769
0.0021711
0.00198181
0.0017704
0.00157659
0.00141053
0.00126616
0.00113929
0.00102869
0.000917142
0.000760822
0.000486464
0.000419772
0.00068162
0.000862171
0.000963756
0.00102334
0.00106089
0.00108191
0.00108831
0.00108416
0.00107177
0.0010489
0.00102386
0.00100429
0.00102298
0.00113555
0.00131677
0.00149809
0.00165292
0.0017864
0.00191168
0.00203956
0.00216171
0.00225332
0.0022844
0.00223155
0.00208954
0.00189919
0.00170161
0.00151902
0.00135514
0.00120784
0.00107454
0.000937339
0.000759658
0.000484056
0.000423724
0.00067648
0.000852021
0.000952525
0.0010128
0.00105209
0.00107548
0.00108433
0.00108436
0.00107191
0.0010507
0.00102619
0.00100326
0.000996665
0.00103652
0.00118042
0.00136538
0.00153163
0.00167421
0.00180953
0.00194625
0.00208093
0.00219351
0.00225714
0.00225658
0.00216391
0.00200638
0.00181914
0.00162995
0.00145153
0.00128653
0.00113302
0.000971161
0.000765992
0.000487012
0.000423458
0.000668724
0.000842054
0.000942944
0.00100463
0.0010457
0.00107129
0.00108237
0.00108256
0.00107339
0.00105799
0.00103661
0.00101093
0.000993645
0.000996226
0.00107206
0.00122864
0.00140248
0.00155795
0.00170625
0.00185516
0.0020025
0.00213131
0.00222252
0.00225331
0.00220767
0.00208327
0.00191525
0.00173005
0.00154495
0.00136721
0.00119681
0.00101308
0.000784659
0.000498984
0.000425138
0.000660502
0.00083027
0.000931228
0.000994148
0.00103704
0.00106493
0.00108008
0.00108455
0.00107792
0.00106529
0.00104711
0.00102437
0.000999844
0.000993064
0.00102246
0.00113343
0.00129149
0.00145708
0.00161872
0.00177726
0.00193048
0.00206804
0.00217335
0.00222226
0.00220777
0.00212046
0.00197458
0.00180106
0.00161863
0.00143687
0.00125718
0.00105897
0.00081102
0.000503836
0.000424592
0.000650439
0.000818397
0.000920375
0.000984905
0.00102961
0.00105951
0.00107665
0.00108206
0.00107994
0.00107066
0.00105579
0.00103617
0.0010121
0.000993843
0.000993864
0.00105519
0.0011871
0.00134465
0.00150746
0.00167188
0.00183009
0.00197621
0.00209498
0.00216781
0.00218031
0.00211913
0.00200136
0.00184278
0.00166557
0.00148424
0.00130195
0.0010963
0.000832777
0.000504235
0.000420059
0.000636837
0.000803904
0.000907553
0.000973868
0.00102045
0.00105272
0.00107286
0.00108227
0.00108314
0.0010777
0.00106656
0.0010507
0.00103049
0.00100593
0.000992906
0.00100696
0.00110066
0.00124398
0.00140676
0.00156355
0.00171424
0.00186334
0.00199471
0.00208705
0.00211961
0.00209057
0.00199746
0.0018621
0.00170324
0.00152893
0.00134545
0.00113344
0.000855433
0.00050811
0.000413893
0.000622545
0.000789679
0.000895236
0.00096327
0.00101147
0.00104566
0.00106823
0.00108087
0.00108457
0.00108243
0.00107486
0.00106256
0.00104598
0.00102522
0.00100078
0.000992506
0.00101894
0.00112713
0.00127897
0.0014366
0.00158084
0.00171609
0.00184723
0.00195538
0.00200821
0.00200575
0.00194682
0.00184239
0.00169964
0.00153656
0.00136497
0.00115912
0.000876276
0.000509479
0.000399305
0.000603806
0.000773282
0.000882009
0.000952253
0.00100223
0.00103849
0.00106364
0.00107938
0.00108701
0.00108788
0.00108451
0.00107662
0.00106422
0.0010474
0.00102603
0.00100092
0.000993683
0.00102317
0.00113438
0.00129109
0.00144273
0.00157571
0.0016967
0.00180336
0.00188308
0.00190695
0.00187172
0.00178718
0.00166598
0.00152502
0.0013669
0.00117546
0.000896317
0.000510438
0.000382679
0.000584808
0.000756681
0.000868331
0.000940598
0.000992158
0.00103024
0.00105777
0.0010766
0.00108783
0.00109138
0.00109151
0.00108819
0.00108075
0.00106875
0.00105213
0.00103106
0.00100726
0.00100353
0.00104298
0.00115836
0.00130719
0.00144711
0.0015689
0.0016757
0.00175728
0.00179543
0.0017882
0.00172999
0.00163185
0.00150813
0.00136491
0.00118078
0.000905377
0.000503322
0.000361973
0.000565104
0.000741249
0.000856567
0.000931017
0.000984087
0.0010237
0.00105315
0.0010747
0.00108989
0.00109597
0.00109855
0.00109858
0.00109527
0.0010877
0.00107486
0.00105641
0.00103349
0.00101675
0.00101759
0.00106919
0.00118952
0.00133264
0.00145889
0.00156303
0.00164459
0.00169054
0.00169346
0.00165071
0.00157147
0.00146834
0.00134326
0.0011734
0.000897998
0.000475491
0.000333639
0.000543066
0.00072382
0.000842866
0.000919695
0.00097443
0.0010156
0.00104669
0.00107023
0.00108857
0.00109792
0.00110516
0.00110906
0.00110999
0.00110805
0.00110151
0.00108861
0.00106765
0.0010394
0.00102133
0.00102598
0.00108505
0.00122209
0.00136564
0.00148037
0.00156212
0.00161008
0.0016187
0.00158582
0.00151975
0.00142994
0.00131738
0.00115983
0.00089453
0.000459341
0.000307466
0.000523719
0.000709207
0.000832243
0.0009117
0.000968162
0.00101079
0.00104337
0.00106857
0.00108872
0.00110069
0.00111073
0.00111812
0.00112298
0.00112561
0.00112593
0.00112264
0.00111246
0.00109178
0.00105909
0.00102535
0.0010221
0.00107535
0.00120953
0.00135145
0.00145973
0.00152316
0.00154538
0.0015302
0.00147935
0.00140106
0.0012987
0.00115247
0.000895469
0.000461178
0.000277573
0.000502892
0.000692913
0.000820051
0.000902624
0.000961113
0.00100536
0.00103947
0.00106645
0.00108879
0.00110425
0.00111757
0.001128
0.00113583
0.00114225
0.00114736
0.00115058
0.00115033
0.00114326
0.00112476
0.00109096
0.00104645
0.00102637
0.00106769
0.0011935
0.00133451
0.00143617
0.00147957
0.00147659
0.0014386
0.00137252
0.00128266
0.00115121
0.000905549
0.000488084
0.000249153
0.000486991
0.000679985
0.000811046
0.000896971
0.000957145
0.00100272
0.00103797
0.00106608
0.00108934
0.00110948
0.00112649
0.00114033
0.00115027
0.00116037
0.00117039
0.00118007
0.00118793
0.00119153
0.00118707
0.00116881
0.00113096
0.00107449
0.0010339
0.00106067
0.00116753
0.00130441
0.00140579
0.00143833
0.00142105
0.00136283
0.0012811
0.00115532
0.000927538
0.000546485
0.000230892
0.000474922
0.00067047
0.000803917
0.000891521
0.00095406
0.000999357
0.00103518
0.0010646
0.00109159
0.00111403
0.00113349
0.00115087
0.00116642
0.00118105
0.00119553
0.00121052
0.00122435
0.00123766
0.00124722
0.0012502
0.00123794
0.00119533
0.00112181
0.00105317
0.00105007
0.00110739
0.00123591
0.00134778
0.0013856
0.00136065
0.00128921
0.00117826
0.000975273
0.000655133
0.0002274
0.000473306
0.000667979
0.000802337
0.000891411
0.000952618
0.00099845
0.0010333
0.00106146
0.00108648
0.00110906
0.00113113
0.00115322
0.00117103
0.001187
0.00120346
0.00122257
0.00124716
0.00127838
0.00131347
0.00134842
0.00136526
0.00135213
0.00128455
0.00118604
0.0010966
0.00106552
0.00109029
0.00119294
0.00130133
0.00133448
0.0012946
0.00120202
0.00103661
0.000803815
0.000229784
0.000474323
0.000668539
0.000801636
0.00088956
0.000951861
0.000997529
0.00103268
0.00106058
0.00108526
0.00110853
0.00112953
0.00114708
0.00116248
0.00117844
0.00119701
0.00122044
0.00125212
0.0012901
0.00134059
0.00140072
0.00146865
0.00151495
0.00150956
0.00144146
0.00132254
0.00118019
0.00109768
0.00110517
0.00117843
0.00126502
0.00127809
0.00122496
0.00109955
0.000941524
0.000245267
0.000486194
0.000676201
0.000804333
0.000890504
0.000950852
0.00099597
0.00102982
0.00105587
0.00107878
0.00109993
0.00111955
0.00113645
0.00115203
0.00116797
0.00118594
0.00120827
0.00123849
0.001283
0.00135004
0.00144143
0.00154738
0.00163994
0.00168794
0.00167783
0.00160867
0.00147587
0.00128172
0.0011407
0.00114829
0.00120924
0.00124801
0.0012248
0.0011378
0.000983344
0.000265059
0.000497681
0.000682014
0.000807887
0.000892571
0.000951144
0.000995312
0.00102799
0.00105223
0.00107259
0.00109081
0.00110745
0.00112125
0.00113381
0.00114661
0.00116143
0.00118124
0.00121129
0.00126045
0.00134347
0.00147015
0.00161989
0.00175692
0.00184387
0.00186757
0.00183745
0.00173069
0.00154785
0.00131731
0.00118612
0.00120855
0.00123818
0.00122236
0.00114804
0.000967267
0.000285542
0.00050912
0.000687004
0.000809078
0.000890992
0.000950196
0.000993595
0.00102477
0.00104691
0.00106423
0.00107942
0.00109337
0.00110526
0.00111564
0.00112529
0.00113498
0.00114851
0.00117322
0.00122109
0.00131857
0.00148229
0.00167851
0.00185382
0.00196725
0.00201216
0.00199332
0.00189627
0.00171772
0.00146801
0.00125597
0.00122156
0.0012381
0.00122007
0.00114173
0.000898182
0.00031067
0.000517413
0.000688232
0.00080767
0.000889801
0.000948042
0.000990343
0.00102043
0.00104132
0.00105656
0.00106974
0.00108204
0.00109289
0.0011024
0.00111071
0.00111855
0.00112587
0.00113344
0.0011693
0.00126703
0.00145158
0.00168374
0.00188967
0.00203202
0.00210476
0.0021008
0.00202098
0.00184999
0.00159671
0.00134727
0.00125104
0.00124046
0.00121155
0.00111377
0.000815611
0.000322537
0.000518438
0.000687054
0.000806445
0.000887693
0.00094544
0.000987305
0.0010168
0.00103678
0.00105036
0.00106178
0.00107365
0.00108938
0.00110154
0.00111031
0.00111596
0.00111597
0.00111697
0.00112847
0.00119841
0.00136932
0.00161371
0.0018452
0.0020133
0.00210564
0.00212331
0.00206356
0.00191343
0.00167107
0.00142328
0.00129033
0.00124528
0.00119978
0.00107501
0.000725876
0.000323027
0.000513619
0.000679282
0.000798589
0.000880756
0.000939132
0.000981305
0.00101112
0.00103142
0.0010454
0.0010569
0.00106976
0.00108625
0.00109686
0.0011069
0.00111333
0.0011183
0.00111701
0.00111648
0.00113475
0.00125775
0.00149002
0.00174635
0.00194674
0.00206685
0.00210097
0.00205036
0.00190948
0.00169336
0.00146819
0.00132811
0.00125649
0.00118408
0.0010222
0.000636074
0.000317966
0.000507293
0.000673662
0.000793855
0.000876314
0.000934667
0.000976706
0.00100625
0.0010263
0.0010401
0.00105191
0.00106636
0.00108599
0.00110398
0.00112586
0.00114405
0.00115212
0.00114507
0.00112501
0.00111086
0.00113325
0.00128656
0.00154138
0.0017798
0.00193471
0.0019927
0.00196577
0.00185205
0.00167304
0.00148002
0.00134708
0.00125866
0.00116002
0.000966065
0.000573133
0.00031069
0.000500498
0.000667489
0.000788206
0.000870672
0.000928972
0.000970774
0.00100013
0.00101998
0.00103361
0.00104534
0.00106122
0.00108613
0.0011127
0.00114666
0.00117829
0.00120411
0.00121148
0.00119287
0.00115368
0.00112437
0.00115663
0.00131515
0.00155258
0.00175064
0.00185792
0.00187029
0.00179405
0.00165149
0.00149307
0.00136239
0.0012597
0.00114102
0.000930293
0.000550995
0.000306689
0.000496935
0.00066464
0.000785418
0.000867574
0.00092536
0.000966265
0.000994692
0.00101372
0.00102666
0.00103762
0.00105211
0.00107592
0.00111428
0.00115819
0.00120922
0.00125889
0.00128818
0.00128228
0.00123747
0.00117067
0.00113891
0.00119934
0.00135917
0.00153932
0.0016758
0.00173166
0.00170612
0.00161201
0.00148911
0.00137286
0.00126418
0.00113038
0.000907754
0.000542026
0.000307625
0.000495384
0.000663044
0.000783714
0.000864823
0.000921465
0.000960963
0.000987424
0.00100471
0.00101621
0.00102643
0.00104098
0.00106586
0.00110319
0.00115768
0.00122782