/*--------------------------------*- C++ -*----------------------------------*\
| =========                 |                                                 |
| \\      /  F ield         | OpenFOAM: The Open Source CFD Toolbox           |
|  \\    /   O peration     | Version:  2.0.x                                 |
|   \\  /    A nd           | Web:      www.OpenFOAM.org                      |
|    \\/     M anipulation  |                                                 |
\*---------------------------------------------------------------------------*/
FoamFile
{
    version     2.0;
    format      ascii;
    class       volScalarField;
    location    "300";
    object      omega;
}
// * * * * * * * * * * * * * * * * * * * * * * * * * * * * * * * * * * * * * //

dimensions      [0 0 -1 0 0 0 0];

internalField   nonuniform List<scalar> 
78750
(
1022.34
4.89721
5.27863
5.51532
5.70712
5.87286
6.02182
6.15698
6.27903
6.38041
6.45934
6.52351
6.57857
6.60538
6.66085
6.70933
6.73026
6.74999
6.7483
6.73986
6.72534
6.70667
6.68325
6.65697
6.63013
6.60239
6.5732
6.54225
6.50886
6.4722
6.43039
6.38161
6.3096
6.0275
1092.24
1022.29
4.53882
4.94306
5.36188
5.75625
6.10917
6.40516
6.65913
6.89675
7.06757
7.1943
7.28277
7.33775
7.36186
7.34624
7.30548
7.26312
7.21932
7.17503
7.13126
7.08892
7.04914
7.01155
6.9723
6.92639
6.87631
6.82215
6.76503
6.7032
6.63718
6.56087
6.48159
6.35095
6.06878
1093.46
1022.3
4.8815
5.65651
6.29302
6.78434
7.14234
7.38757
7.53673
7.58744
7.59694
7.58491
7.55084
7.49937
7.43657
7.36884
7.28933
7.19911
7.10439
7.00887
6.91968
6.84321
6.78
6.73775
6.71665
6.71363
6.717
6.72001
6.71512
6.69057
6.63711
6.56854
6.48457
6.37358
6.28679
1094.57
1022.49
5.46196
6.39723
6.98476
7.3045
7.47357
7.56654
7.61703
7.64097
7.64052
7.6161
7.56225
7.48349
7.37942
7.23141
7.05764
6.8681
6.67156
6.49035
6.33302
6.20777
6.13181
6.10932
6.12401
6.1882
6.28352
6.38463
6.46929
6.5253
6.54866
6.52837
6.4672
6.40471
6.38036
1094.57
1022.82
5.8404
6.67615
7.13927
7.41064
7.59053
7.71466
7.79184
7.82266
7.81221
7.75678
7.66157
7.53214
7.3803
7.21642
7.03386
6.83515
6.62574
6.41261
6.22132
6.06084
5.94209
5.87322
5.85996
5.89838
5.998
6.1252
6.25061
6.35163
6.41569
6.43795
6.42843
6.40566
6.38569
1094.37
1023.08
6.0714
6.87713
7.3219
7.57193
7.72721
7.82458
7.87624
7.88774
7.86428
7.80509
7.71394
7.59363
7.44668
7.27132
7.07092
6.85218
6.62409
6.39849
6.18636
5.99976
5.85097
5.75444
5.72053
5.74979
5.84144
5.96768
6.10081
6.21844
6.30665
6.36001
6.38287
6.38025
6.34807
1094.18
1023.22
6.14177
6.92174
7.36398
7.62472
7.79737
7.9158
7.98964
8.02164
8.01347
7.9668
7.88429
7.76991
7.62941
7.46636
7.27858
7.06464
6.82749
6.57686
6.32971
6.10319
5.9094
5.76437
5.68552
5.67709
5.73394
5.84288
5.97171
6.0979
6.20667
6.28869
6.33952
6.35019
6.3119
1094.1
1023.31
6.22795
7.0155
7.4565
7.71352
7.88217
7.99583
8.06507
8.09473
8.08787
8.04698
7.9744
7.87292
7.74634
7.59892
7.4304
7.23984
7.02624
6.79113
6.5425
6.29386
6.06108
5.8662
5.73062
5.66921
5.67535
5.74751
5.86259
5.99177
6.11445
6.21697
6.28882
6.31003
6.27867
1094.1
1023.34
6.23545
7.02624
7.48651
7.76258
7.94858
8.0797
8.16696
8.21478
8.22562
8.20174
8.14527
8.0589
7.94601
7.8112
7.65768
7.48443
7.29052
7.07543
6.84105
6.59329
6.34137
6.10295
5.90217
5.75389
5.6848
5.69273
5.76872
5.89246
6.03069
6.15649
6.25034
6.28673
6.275
1094.17
1023.36
6.26255
7.06778
7.5372
7.81911
8.00914
8.1435
8.2342
8.28669
8.30423
8.28961
8.24494
8.17249
8.0748
7.95508
7.81801
7.66332
7.49011
7.29754
7.08618
6.8585
6.61936
6.37414
6.13998
5.94015
5.78785
5.70793
5.71641
5.79622
5.93163
6.07999
6.20302
6.26228
6.27918
1094.32
1023.37
6.26486
7.07971
7.57143
7.87315
8.07879
8.22727
8.3319
8.39843
8.43004
8.42951
8.39901
8.3408
8.25726
8.15109
8.02558
7.88445
7.72656
7.55052
7.35544
7.14178
6.91297
6.67313
6.42441
6.18614
5.9821
5.82615
5.744
5.76079
5.86002
6.01042
6.16288
6.25956
6.3132
1094.44
1023.36
6.26842
7.09756
7.60133
7.91312
8.12732
8.28313
8.39467
8.46862
8.50895
8.51861
8.50035
8.45606
8.38786
8.29792
8.18874
8.06364
7.92348
7.76661
7.59154
7.39674
7.18151
6.94772
6.69632
6.43367
6.18184
5.96231
5.81261
5.77264
5.83849
5.98828
6.15734
6.2666
6.32981
1094.46
1023.34
6.25864
7.10387
7.63425
7.96874
8.19924
8.3678
8.49063
8.57538
8.62649
8.6471
8.64017
8.60794
8.55227
8.47536
8.3794
8.26683
8.14105
8.00114
7.84547
7.67204
7.47887
7.26443
7.02823
6.76606
6.48248
6.2042
5.96658
5.83118
5.84477
5.96897
6.14182
6.26978
6.35189
1094.57
1023.32
6.25301
7.10845
7.654
8.00492
8.24856
8.42638
8.55667
8.64855
8.70728
8.73638
8.73864
8.71821
8.67525
8.61245
8.53179
8.43512
8.32457
8.20154
8.0645
7.91155
7.74036
7.54872
7.33637
7.09972
6.82713
6.52887
6.23995
6.00477
5.90253
5.96705
6.14038
6.27295
6.39241
1094.75
1023.3
6.2508
7.12923
7.70218
8.0722
8.32869
8.51664
8.65518
8.75497
8.82158
8.85884
8.86952
8.85794
8.8251
8.77341
8.70496
8.62146
8.52444
8.41574
8.29485
8.15935
8.00636
7.83232
7.63418
7.40956
7.14815
6.84197
6.51654
6.2128
6.02862
6.02454
6.1531
6.30546
6.44646
1094.82
1023.27
6.25153
7.15283
7.74467
8.12739
8.39194
8.5857
8.72976
8.83562
8.90789
8.95147
8.96895
8.96473
8.94156
8.90115
8.84583
8.77737
8.69692
8.60551
8.50401
8.38976
8.25936
8.10879
7.93443
7.7329
7.49116
7.18859
6.82653
6.43725
6.13807
6.07414
6.18659
6.34014
6.47326
1094.87
1023.25
6.27141
7.20854
7.82555
8.22029
8.48929
8.68474
8.83129
8.94319
9.02406
9.0741
9.09608
9.09605
9.08015
9.04782
9.00262
8.94664
8.88067
8.80508
8.72113
8.62666
8.51767
8.39007
8.24083
8.06962
7.86979
7.61221
7.27447
6.8717
6.43865
6.18099
6.20721
6.34899
6.52055
1095.23
1023.26
6.30709
7.27751
7.90894
8.3065
8.57328
8.76435
8.90677
9.01732
9.1022
9.16019
9.19286
9.20055
9.19092
9.16474
9.12904
9.08656
9.03678
8.97928
8.9141
8.8397
8.75025
8.63887
8.50008
8.33559
8.14607
7.91364
7.62471
7.28127
6.84322
6.43738
6.32213
6.41823
6.6429
1095.64
1023.3
6.39627
7.40327
8.04078
8.43142
8.68861
8.86975
9.00253
9.10427
9.18523
9.2427
9.2782
9.29466
9.29577
9.28629
9.26617
9.24003
9.2086
9.1718
9.12748
9.07642
9.00863
8.91179
8.77739
8.60419
8.39495
8.14303
7.85308
7.52749
7.12155
6.68945
6.47615
6.52442
6.74489
1095.74
1023.38
6.51057
7.54347
8.17205
8.54509
8.78622
8.95298
9.07175
9.15819
9.22735
9.28077
9.31099
9.32492
9.32662
9.32423
9.32316
9.32784
9.33814
9.35609
9.37289
9.3735
9.35136
9.27541
9.13186
8.91398
8.6358
8.3219
7.98669
7.60655
7.18409
6.80692
6.62759
6.66646
6.84599
1095.72
1023.54
6.68758
7.72666
8.32934
8.67579
8.89614
9.04582
9.14807
9.21532
9.2629
9.29858
9.3197
9.32769
9.32807
9.32723
9.33211
9.35964
9.42666
9.52631
9.64121
9.73123
9.75902
9.72664
9.5986
9.37092
9.05372
8.67904
8.24304
7.75013
7.257
6.87724
6.72007
6.75173
6.89388
1095.72
1023.74
6.8689
7.88639
8.45235
8.77095
8.97191
9.10626
9.19361
9.24409
9.26778
9.27807
9.27365
9.25616
9.23381
9.22027
9.23053
9.29745
9.45518
9.70701
9.96223
10.1452
10.2252
10.2006
10.0678
9.84366
9.54781
9.16313
8.64861
7.99923
7.37609
6.96769
6.81085
6.83798
6.97331
1095.85
1024
7.04639
8.02579
8.5579
8.85557
9.04286
9.16641
9.24302
9.28113
9.28807
9.27714
9.2406
9.19337
9.13718
9.08539
9.06694
9.14098
9.40047
9.82473
10.2512
10.5455
10.6689
10.6624
10.5668
10.3878
10.1217
9.75116
9.2395
8.53207
7.68891
7.0889
6.90274
6.92351
7.04829
1095.85
1024.17
7.15918
8.09966
8.60905
8.89667
9.07924
9.19963
9.27285
9.30628
9.30573
9.27794
9.235
9.17286
9.09886
9.02076
8.95466
8.93162
9.15041
9.70429
10.2603
10.6378
10.846
10.9319
10.9282
10.8367
10.6509
10.3543
9.91241
9.25127
8.3199
7.37781
6.98149
6.98955
7.10636
1095.81
1024.19
7.1712
8.11338
8.62984
8.92349
9.11175
9.23773
9.31687
9.35753
9.36602
9.34769
9.30586
9.24491
9.16581
9.06834
8.95596
8.85577
8.81168
8.92478
9.44307
10.0634
10.5214
10.8086
10.9628
11.0243
10.9897
10.8383
10.5424
10.0383
9.21737
8.11722
7.2834
7.09919
7.16379
1095.83
1024.2
7.18868
8.13651
8.65453
8.94915
9.13839
9.26575
9.3469
9.39059
9.40426
9.39495
9.36849
9.32826
9.27516
9.20656
9.11574
8.99369
8.85023
8.76695
8.84428
9.33743
9.96673
10.456
10.7767
10.9608
11.0388
11.0172
10.8532
10.485
9.8061
8.77717
7.77025
7.3372
7.25288
1095.83
1024.2
7.19329
8.14995
8.67546
8.97552
9.16904
9.30012
9.38477
9.4317
9.44821
9.44105
9.41618
9.37828
9.3305
9.27348
9.20429
9.11606
9.00046
8.86912
8.8086
8.96947
9.50159
10.099
10.5333
10.8116
10.9735
11.0145
10.9212
10.6254
10.0376
9.12368
8.15625
7.60224
7.36605
1095.79
1024.17
7.19366
8.15791
8.69007
8.99463
9.19134
9.32551
9.41393
9.46604
9.48988
9.49243
9.48028
9.4568
9.42474
9.38434
9.33253
9.26242
9.16417
9.03068
8.88283
8.83385
9.03891
9.55394
10.1104
10.5235
10.7865
10.9209
10.9044
10.6831
10.1758
9.3656
8.46921
7.85312
7.48374
1095.83
1024.16
7.20059
8.17662
8.71745
9.02643
9.22515
9.36019
9.44857
9.50013
9.52333
9.5256
9.5153
9.49635
9.4739
9.4513
9.42781
9.39577
9.33976
9.24263
9.0957
8.91406
8.84306
9.03339
9.527
10.0501
10.4581
10.7106
10.8045
10.6943
10.315
9.61355
8.77259
8.11657
7.66624
1096.13
1024.22
7.23445
8.21064
8.74966
9.05807
9.25675
9.39195
9.48065
9.5334
9.55956
9.56689
9.56298
9.5513
9.5367
9.52495
9.51998
9.51722
9.49797
9.43733
9.31937
9.13312
8.93096
8.91283
9.13343
9.59633
10.048
10.4211
10.6312
10.6315
10.3296
9.73867
8.99336
8.35097
7.85465
1096.3
1024.38
7.31102
8.26984
8.79856
9.10112
9.29624
9.42769
9.51166
9.55925
9.58151
9.5877
9.58628
9.57795
9.57105
9.57451
9.60192
9.65453
9.7011
9.68808
9.59236
9.39824
9.13278
8.94011
8.98592
9.30484
9.72526
10.1004
10.3858
10.4708
10.2746
9.76066
9.11059
8.51564
7.99158
1096.3
1024.62
7.39948
8.32112
8.835
9.13054
9.32405
9.45402
9.53597
9.58005
9.59762
9.59951
9.5966
9.58576
9.5807
9.58808
9.6278
9.72188
9.86652
10.0001
9.98999
9.79019
9.43968
9.10106
9.0011
9.16903
9.51396
9.86189
10.1184
10.2361
10.1161
9.72961
9.19457
8.62918
8.06332
1096.24
1024.81
7.43703
8.3364
8.84983
9.15005
9.34515
9.47397
9.55462
9.59601
9.60913
9.60472
9.59501
9.57124
9.5345
9.50151
9.51738
9.65075
9.87375
10.0776
10.1547
10.0847
9.83734
9.46831
9.17099
9.17451
9.41477
9.70308
9.9204
10.0004
9.9055
9.6169
9.19007
8.68836
8.08547
1095.95
1024.86
7.43873
8.32687
8.84254
9.15197
9.35154
9.48136
9.56534
9.61012
9.62847
9.62722
9.60961
9.58102
9.54419
9.49526
9.45816
9.46256
9.61595
9.91354
10.1247
10.1572
10.0432
9.79759
9.46166
9.27246
9.35054
9.56892
9.74999
9.8111
9.72252
9.48358
9.14844
8.70589
8.07783
1095.62
1024.85
7.3889
8.29064
8.81432
9.12661
9.33673
9.48351
9.57212
9.61823
9.64576
9.65935
9.66361
9.65642
9.63125
9.58213
9.50714
9.43303
9.40648
9.47476
9.70516
9.9298
9.98918
9.89964
9.67819
9.41892
9.34124
9.45391
9.6
9.65999
9.58776
9.38751
9.1011
8.7103
8.08237
1095.59
1024.65
7.30063
8.23327
8.77937
9.10262
9.31566
9.46639
9.56867
9.62188
9.65671
9.67914
9.69679
9.71415
9.72696
9.72633
9.69031
9.60397
9.47628
9.37486
9.34956
9.44659
9.64381
9.74032
9.67929
9.50816
9.32997
9.3395
9.45258
9.53401
9.50329
9.34039
9.09501
8.72923
8.1282
1095.67
1024.44
7.21021
8.16806
8.7403
9.08396
9.30884
9.46339
9.56856
9.62743
9.6676
9.69637
9.72309
9.75577
9.7958
9.83689
9.8634
9.85702
9.78746
9.64081
9.44974
9.3062
9.29296
9.4129
9.53228
9.4988
9.38628
9.29651
9.32128
9.3871
9.40207
9.31157
9.10222
8.77994
8.24674
1096.15
1024.22
7.11931
8.11419
8.71631
9.07749
9.30751
9.46429
9.56969
9.63379
9.67856
9.71303
9.74678
9.79342
9.85726
9.93422
10.0091
10.0596
10.0636
10.0063
9.86282
9.63434
9.40867
9.32346
9.34688
9.40831
9.38178
9.32247
9.27095
9.2813
9.29756
9.25552
9.09799
8.83138
8.39083
1096.69
1024.16
7.11051
8.11008
8.71328
9.0726
9.30574
9.46474
9.57098
9.6415
9.68669
9.72259
9.76099
9.82283
9.91814
10.0446
10.1831
10.3009
10.3647
10.3574
10.2709
10.0827
9.79721
9.51673
9.39148
9.36942
9.37632
9.34416
9.2898
9.25149
9.24811
9.21457
9.08806
8.86443
8.49745
1097.08
1024.16
7.12359
8.14479
8.74788
9.10244
9.32592
9.47782
9.57941
9.63443
9.67213
9.70936
9.77201
9.86253
10.0017
10.1997
10.4278
10.6379
10.7852
10.8349
10.7902
10.6181
10.3058
9.91012
9.59329
9.43791
9.38423
9.35746
9.32034
9.27045
9.24096
9.20093
9.09337
8.8957
8.57203
1097.25
1024.3
7.24617
8.26081
8.83041
9.15485
9.35572
9.48732
9.56626
9.61656
9.6514
9.68767
9.75198
9.88816
10.1089
10.4276
10.7917
11.131
11.3882
11.5253
11.5193
11.3673
10.9926
10.4597
9.95955
9.59717
9.43407
9.38005
9.34736
9.30564
9.25477
9.19884
9.08601
8.91245
8.62743
1097.25
1024.6
7.41478
8.38321
8.90739
9.19767
9.37291
9.47262
9.53013
9.55984
9.57838
9.60925
9.69282
9.88252
10.2263
10.6767
11.1592
11.5803
11.8952
12.0881
12.1388
12.0462
11.7577
11.2732
10.6718
10.0715
9.67306
9.4983
9.40984
9.32942
9.27379
9.19935
9.08399
8.92149
8.61969
1097.11
1025
7.6149
8.51627
8.9866
9.23994
9.38834
9.46625
9.50085
9.50533
9.50028
9.51338
9.60738
9.87291
10.3475
10.9485
11.5289
11.9974
12.334
12.5403
12.6089
12.5248
12.2823
11.8695
11.3038
10.6562
10.1214
9.80505
9.61244
9.4477
9.30358
9.20255
9.07711
8.90919
8.58791
1096.78
1025.42
7.75848
8.59047
9.01337
9.24426
9.37054
9.43555
9.45111
9.43169
9.39159
9.3722
9.4461
9.75748
10.3493
10.9996
11.58
12.0609
12.4279
12.6913
12.8509
12.8764
12.7277
12.3879
11.8558
11.2016
10.5964
10.173
9.88289
9.63606
9.40197
9.20851
9.05961
8.8678
8.49135
1096.3
1025.62
7.81991
8.6068
9.01612
9.22278
9.346
9.41032
9.42386
9.39787
9.33926
9.275
9.26938
9.46479
9.9656
10.6431
11.2673
11.7809
12.2212
12.5831
12.8542
13.0073
13.0166
12.821
12.3965
11.7885
11.1386
10.6066
10.2098
9.87914
9.56855
9.28963
9.06185
8.8214
8.38654
1095.9
1025.63
7.82088
8.58392
8.97607
9.19623
9.32798
9.39704
9.41418
9.39138
9.33773
9.26362
9.19136
9.19788
9.45508
10.0204
10.6704
11.2362
11.7136
12.1418
12.5178
12.8139
12.9984
13.0164
12.7867
12.3186
11.7078
11.1096
10.6064
10.1807
9.79163
9.43431
9.12614
8.82101
8.29888
1095.65
1025.63
7.814
8.56017
8.95256
9.16962
9.30153
9.37406
9.39631
9.37969
9.33117
9.25845
9.17984
9.1682
9.34052
9.79486
10.3984
10.9546
11.4175
11.8162
12.1831
12.5216
12.8053
12.9666
12.9416
12.6478
12.1532
11.5781
11.0265
10.5296
10.0727
9.64735
9.25638
8.84408
8.24254
1095.57
1025.74
7.81907
8.54916
8.9338
9.15205
9.28716
9.36223
9.38566
9.37232
9.33235
9.25859
9.16858
9.10238
9.18222
9.57116
10.1713
10.7396
11.2028
11.5872
11.9363
12.2824
12.6068
12.8474
12.932
12.8043
12.4417
11.9372
11.3907
10.8604
10.3582
9.88031
9.42287
8.92581
8.24601
1095.55
1025.79
7.79967
8.51011
8.89208
9.11384
9.25568
9.33913
9.36992
9.36431
9.32645
9.25843
9.1733
9.09132
9.06401
9.22871
9.73399
10.339
10.8529
11.274
11.6588
12.0359
12.3985
12.6956
12.8656
12.8696
12.6378
12.2292
11.7239
11.1892
10.6583
10.1394
9.62825
9.05554
8.27463
1095.59
1025.79
7.76587
8.471
8.85609
9.08374
9.23234
9.32372
9.36316
9.36463
9.33373
9.27926
9.20509
9.11687
9.06031
9.07602
9.35745
9.89888
10.46
10.9358
11.3709
11.7922
12.1959
12.5393
12.779
12.8618
12.7505
12.4322
11.9873
11.476
10.9393
10.3955
9.84333
9.20865
8.35307
1095.68
1025.8
7.7298
8.42429
8.81186
9.04525
9.20104
9.30078
9.35359
9.36482
9.34791
9.30567
9.24316
9.16441
9.08013
9.06078
9.16891
9.569
10.1021
10.6283
11.1166
11.5755
12.0029
12.375
12.6538
12.7833
12.7508
12.5283
12.145
11.6722
11.1528
10.6087
10.0401
9.37096
8.45861
1095.72
1025.8
7.68583
8.3769
8.7705
9.01091
9.17388
9.28147
9.3429
9.36328
9.35602
9.32398
9.27273
9.2053
9.12275
9.06217
9.07299
9.29343
9.75334
10.2733
10.7833
11.2743
11.7269
12.1303
12.4496
12.6431
12.679
12.5246
12.2164
11.7878
11.2883
10.7522
10.1838
9.50005
8.54232
1095.72
1025.76
7.62655
8.31934
8.72204
8.9704
9.1409
9.25721
9.32918
9.36233
9.36632
9.34804
9.30984
9.25536
9.18609
9.10236
9.06026
9.11544
9.45038
9.94022
10.4685
10.9519
11.3962
11.8189
12.1803
12.4298
12.5193
12.4474
12.205
11.8383
11.394
10.8854
10.3211
9.6266
8.6303
1095.76
1025.71
7.56328
8.26175
8.67447
8.93049
9.10758
9.23121
9.31214
9.35747
9.37113
9.36448
9.33881
9.2966
9.23978
9.16911
9.08665
9.06267
9.16431
9.54894
10.0595
10.5635
11.0044
11.4021
11.7754
12.0753
12.2207
12.2172
12.0614
11.7794
11.3794
10.903
10.3786
9.71124
8.70827
1095.77
1025.59
7.48058
8.19615
8.62438
8.89008
9.07438
9.2058
9.2959
9.35197
9.37909
9.38291
9.37191
9.34504
9.30234
9.24441
9.1715
9.08714
9.06823
9.18156
9.57562
10.1019
10.5856
10.9918
11.3495
11.6563
11.8826
11.9523
11.8585
11.626
11.2822
10.8679
10.3833
9.76514
8.78329
1095.77
1025.45
7.39452
8.12794
8.57101
8.84592
9.03693
9.17552
9.27451
9.34185
9.38214
9.39508
9.39653
9.38599
9.36122
9.32042
9.26332
9.19134
9.11131
9.10375
9.2489
9.65314
10.1513
10.5985
10.972
11.2896
11.5278
11.6387
11.6217
11.4603
11.1801
10.8151
10.3754
9.77856
8.81013
1095.71
1025.27
7.30484
8.06458
8.52538
8.80996
9.00723
9.15174
9.25772
9.33478
9.38996
9.41089
9.42028
9.42126
9.41111
9.3865
9.34373
9.28115
9.20316
9.14819
9.1569
9.34512
9.76466
10.2409
10.6426
10.9613
11.2047
11.3398
11.3503
11.2286
10.9977
10.6895
10.3026
9.75123
8.78017
1095.49
1025.04
7.20408
7.99239
8.4717
8.76707
8.97149
9.12222
9.23445
9.31836
9.38068
9.41733
9.44334
9.45764
9.46184
9.45646
9.43559
9.39304
9.3222
9.22525
9.16391
9.18322
9.39333
9.86537
10.3416
10.7081
10.9605
11.1061
11.1348
11.0408
10.8459
10.5738
10.2213
9.70592
8.76935
1095.38
1024.83
7.116
7.93269
8.43072
8.73728
8.94864
9.1049
9.22246
9.31211
9.38353
9.42711
9.46261
9.48895
9.50651
9.51639
9.51866
9.50937
9.47733
9.40937
9.29826
9.18028
9.1686
9.35324
9.81623
10.2906
10.6409
10.841
10.9121
10.8708
10.72
10.4814
10.16
9.68215
8.77359
1095.4
1024.58
7.01946
7.86506
8.38283
8.70302
8.92284
9.08547
9.20912
9.30563
9.37931
9.43829
9.48556
9.52234
9.55005
9.57255
9.59083
9.60353
9.60544
9.58558
9.52753
9.4158
9.26221
9.18811
9.32673
9.76171
10.2378
10.5745
10.7177
10.712
10.5985
10.3944
10.1093
9.67813
8.81251
1095.63
1024.36
6.94701
7.81185
8.34802
8.68235
8.90951
9.07645
9.2038
9.30455
9.38641
9.45684
9.51567
9.56365
9.59805
9.63216
9.66693
9.70194
9.73266
9.7499
9.7415
9.68684
9.564
9.36962
9.21539
9.29416
9.65504
10.1194
10.4663
10.5876
10.5436
10.3668
10.1107
9.69631
8.90096
1096.1
1024.22
6.89248
7.77399
8.32646
8.66444
8.89538
9.06391
9.19377
9.29824
9.39176
9.47072
9.53862
9.59726
9.65109
9.70103
9.75158
9.80513
9.85878
9.90592
9.94202
9.95423
9.91927
9.78434
9.53821
9.29174
9.26266
9.45049
9.88784
10.277
10.4233
10.3586
10.1338
9.77431
9.07972
1096.97
1024.19
6.88506
7.76744
8.3143
8.65952
8.89463
9.05869
9.18572
9.28629
9.3781
9.45316
9.52811
9.5978
9.66405
9.71983
9.77594
9.83989
9.91974
10.0233
10.1414
10.2625
10.3302
10.3003
10.0888
9.76699
9.4562
9.33423
9.40892
9.74777
10.125
10.2537
10.1412
9.85199
9.30339
1098.14
1024.22
6.89393
7.76628
8.31407
8.6598
8.89436
9.05829
9.18423
9.28335
9.36982
9.45065
9.52294
9.58342
9.63515
9.6884
9.7502
9.82784
9.93285
10.0602
10.2268
10.4239
10.6444
10.7982
10.7853
10.621
10.2521
9.76473
9.45052
9.47875
9.70444
10.0168
10.0804
9.91995
9.51587
1099.15
1024.36
6.95153
7.80221
8.32611
8.66012
8.88837
9.05245
9.17377
9.26593
9.34605
9.4192
9.48633
9.54326
9.59563
9.64929
9.70994
9.78526
9.88664
10.0343
10.2547
10.5476
10.8798
11.1654
11.3176
11.2971
11.1134
10.7254
10.1206
9.62395
9.64711
9.84386
9.98503
9.91931
9.6419
1099.41
1024.52
7.00688
7.82653
8.33922
8.66696
8.88599
9.04812
9.16588
9.25181
9.32292
9.38588
9.44295
9.49005
9.53281
9.5763
9.62671
9.69364
9.79412
9.95807
10.2306
10.635
11.0951
11.5024
11.7559
11.8291
11.7503
11.4535
10.9199
10.1994
9.76905
9.84067
9.95367
9.91073
9.66637
1099.24
1024.69
7.06059
7.84732
8.34415
8.66097
8.88309
9.0422
9.15451
9.23306
9.29342
9.34562
9.393
9.43329
9.46807
9.5002
9.53584
9.58444
9.66493
9.82529
10.1488
10.6725
11.268
11.7731
12.0896
12.215
12.1665
11.9029
11.4002
10.6594
9.9977
9.89917
9.95925
9.90293
9.64283
1098.71
1024.9
7.09847
7.85234
8.33768
8.65582
8.87456
9.02991
9.13842
9.21254
9.26552
9.31061
9.35222
9.39016
9.42092
9.44853
9.46517
9.47868
9.51569
9.64636
9.98033
10.5795
11.2851
11.8741
12.2645
12.4596
12.4504
12.2386
11.7714
11.0458
10.291
9.99122
9.9631
9.87226
9.54332
1098.09
1025
7.10292
7.84711
8.33356
8.64844
8.86528
9.01886
9.12535
9.19654
9.24421
9.2834
9.32211
9.36571
9.40561
9.43352
9.4608
9.47401
9.47559
9.508
9.74395
10.3093
11.0711
11.7449
12.2107
12.4595
12.5037
12.3429
11.9369
11.2581
10.5294
10.1238
9.98206
9.83439
9.40871
1097.4
1025
7.07734
7.81322
8.30219
8.6219
8.84181
8.99706
9.10492
9.17726
9.22622
9.26553
9.30888
9.36674
9.41149
9.44426
9.46066
9.46692
9.46785
9.46852
9.53586
9.93923
10.6915
11.4593
12.0238
12.3473
12.4392
12.3046
11.9244
11.3212
10.6671
10.2436
10.019
9.77906
9.21764
1096.71
1024.95
7.0454
7.78721
8.28117
8.60347
8.82428
8.97983
9.08756
9.1598
9.20886
9.24999
9.29903
9.3608
9.42576
9.49993
9.56184
9.59232
9.57293
9.50905
9.46381
9.55248
10.0352
10.8343
11.5434
11.9839
12.1453
12.0746
11.7649
11.2655
10.7052
10.3026
10.0237
9.69562
9.01687
1096.24
1024.89
7.01007
7.75876
8.25777
8.58157
8.80294
8.95815
9.06543
9.1371
9.18564
9.22669
9.28146
9.36722
9.45799
9.57286
9.67864
9.76487
9.79095
9.73317
9.60689
9.50907
9.61646
10.1317
10.8651
11.4556
11.7705
11.8146
11.6105
11.2111
10.7488
10.3538
10.0282
9.63364
8.8912
1096.09
1024.84
6.98866
7.74385
8.24437
8.56789
8.7883
8.94113
9.04591
9.11532
9.16194
9.20056
9.25069
9.33286
9.46437
9.6137
9.78625
9.95298
10.0521
10.0372
9.89377
9.67467
9.56187
9.75536
10.2718
10.829
11.2362
11.4084
11.3486
11.0894
10.7358
10.384
10.0407
9.59686
8.8059
1096.02
1024.85
6.98121
7.73759
8.23821
8.55818
8.77469
8.92265
9.02065
9.08413
9.12591
9.16215
9.21272
9.29892
9.42737
9.61298
9.84902
10.1013
10.2875
10.3459
10.2425
9.98054
9.68451
9.64577
9.95236
10.411
10.7991
11.0168
11.0427
10.8972
10.6455
10.3564
10.0242
9.56352
8.74783
1095.95
1024.85
6.96653
7.72349
8.22754
8.54842
8.76213
8.90467
8.9965
9.05173
9.08476
9.11164
9.15268
9.2371
9.37608
9.58384
9.86864
10.1816
10.4812
10.6578
10.62
10.3941
10.0246
9.74555
9.78765
10.0925
10.4512
10.6972
10.7758
10.7053
10.5242
10.28
9.97954
9.55216
8.74643
1095.97
1024.79
6.92983
7.70256
8.213
8.5343
8.74666
8.88616
8.97302
9.02182
9.047
9.06409
9.08991
9.14503
9.2497
9.42654
9.70474
10.0868
10.4935
10.7881
10.9139
10.8449
10.5714
10.17
9.85672
9.89283
10.1327
10.4201
10.5875
10.5841
10.4557
10.2367
9.96683
9.55672
8.75749
1096.02
1024.62
6.85932
7.65586
8.17632
8.5018
8.71664
8.85827
8.94715
8.99725
9.02237
9.03819
9.06184
9.10829
9.17968
9.27514
9.43631
9.72364
10.1553
10.6235
10.9706
11.1295
11.1227
10.9261
10.5499
10.1147
10.0003
10.1062
10.2829
10.4036
10.3844
10.2269
9.97405
9.59264
8.87084
1096.5
1024.42
6.79438
7.61932
8.15133
8.48064
8.69706
8.84106
8.9326
8.98522
9.01174
9.02688
9.04869
9.10019
9.17092
9.26729
9.38462
9.50837
9.71052
10.0912
10.601
11.0435
11.3201
11.4275
11.3551
11.0597
10.5526
10.1589
10.1251
10.1833
10.2244
10.1803
9.98653
9.66912
9.06717
1097.41
1024.23
6.7469
7.60226
8.14046
8.47194
8.68949
8.82576
8.91574
8.96933
8.99838
9.01728
9.04393
9.09746
9.18022
9.28204
9.39784
9.5266
9.67953
9.90516
10.2441
10.6907
11.1082
11.427
11.6128
11.6269
11.4622
11.0479
10.4829
10.2082
10.1766
10.1346
9.99248
9.73102
9.25163
1098.29
1024.19
6.74203
7.604
8.14375
8.47219
8.68604
8.81883
8.90474
8.95509
8.98232
9.00234
9.03656
9.11144
9.24484
9.41584
9.58276
9.7223
9.84338
9.98885
10.2316
10.5924
10.9921
11.3631
11.6582
11.8338
11.8443
11.6699
11.2105
10.6325
10.2578
10.1552
10.0091
9.79507
9.38868
1098.54
1024.21
6.80575
7.6779
8.19519
8.49784
8.69194
8.81638
8.89166
8.93214
8.95197
8.97003
9.01466
9.12228
9.31693
9.56558
9.80164
9.99386
10.1377
10.2561
10.4162
10.6814
11.0238
11.3784
11.6876
11.9098
12.0041
11.9247
11.5815
11.0256
10.5099
10.2146
10.0334
9.81336
9.38693
1098.27
1024.29
6.89037
7.7522
8.2474
8.5322
8.71073
8.81658
8.87628
8.90257
8.91207
8.92777
8.98905
9.14373
9.42866
9.78576
10.1082
10.3543
10.5184
10.6139
10.6981
10.8522
11.1081
11.4174
11.7062
11.9231
12.0246
11.9622
11.6742
11.1912
10.6952
10.3445
10.0966
9.82941
9.35618
1097.89
1024.58
7.07937
7.88549
8.32768
8.57742
8.72623
8.81014
8.84802
8.853
8.84762
8.86228
8.96616
9.22763
9.64785
10.1353
10.5426
10.8321
11.0145
11.1115
11.1578
11.2165
11.3458
11.5499
11.7706
11.9488
12.042
11.9919
11.7522
11.3391
10.8746
10.4878
10.1841
9.86867
9.35693
1097.92
1025.04
7.26159
7.9802
8.36855
8.58981
8.71617
8.78625
8.80468
8.79118
8.76247
8.78036
8.94789
9.36784
9.93135
10.4996
10.9538
11.2557
11.4515
11.5693
11.6375
11.6848
11.751
11.8568
11.9833
12.0938
12.144
12.083
11.8623
11.4836
11.033
10.6244
10.2825
9.91662
9.35287
1097.92
1025.61
7.38341
8.00602
8.3722
8.57551
8.69653
8.75597
8.76077
8.72368
8.66554
8.6729
8.88428
9.38809
9.99945
10.5586
11.0376
11.385
11.6459
11.8458
11.9837
12.0703
12.1343
12.1984
12.2651
12.3153
12.316
12.2275
12.0002
11.6297
11.1917
10.7736
10.3892
9.97186
9.34364
1097.75
1025.72
7.38556
7.98269
8.32296
8.52375
8.65016
8.71647
8.72741
8.69757
8.6431
8.5758
8.63557
8.99617
9.64766
10.2678
10.8114
11.2727
11.6311
11.9197
12.1539
12.3146
12.4134
12.4769
12.517
12.5254
12.4874
12.3349
12.0691
11.7053
11.285
10.8659
10.4569
9.96771
9.21382
1096.98
1025.67
7.30709
7.89702
8.25423
8.47059
8.60954
8.68884
8.71207
8.69374
8.64197
8.56227
8.53737
8.68373
9.09096
9.71833
10.322
10.8641
11.3286
11.7438
12.0814
12.3151
12.4744
12.5755
12.6144
12.5959
12.4899
12.312
12.0407
11.691
11.3011
10.8951
10.4636
9.9163
9.02535
1096.36
1025.57
7.24433
7.84176
8.20151
8.42098
8.56595
8.65381
8.68567
8.67497
8.62749
8.55535
8.53064
8.64413
9.02421
9.55898
10.0866
10.5692
11.038
11.4947
11.889
12.1832
12.3816
12.5132
12.5704
12.5659
12.4713
12.287
12.0175
11.6851
11.3123
10.9131
10.4615
9.84892
8.85806
1096.08
1025.57
7.1897
7.77545
8.1397
8.36909
8.52505
8.62355
8.66408
8.66216
8.6235
8.54456
8.47347
8.48831
8.80726
9.33109
9.83892
10.2957
10.7597
11.215
11.6155
11.9371
12.1767
12.3452
12.4377
12.4506
12.3773
12.2168
11.9791
11.6823
11.3319
10.9394
10.4758
9.84648
8.8168
1096.03
1025.41
7.08166
7.68581
8.06215
8.30236
8.47043
8.58343
8.64616
8.6575
8.62952
8.5645
8.47431
8.42576
8.46679
8.87497
9.41464
9.9001
10.3692
10.8323
11.2563
11.6242
11.928
12.1632
12.3139
12.3647
12.3251
12.1874
11.9677
11.6836
11.3493
10.9552
10.4966
9.85723
8.8243
1096.05
1025.09
6.95541
7.58086
7.97287
8.22783
8.41026
8.53921
8.6213
8.65582
8.65907
8.62568
8.55147
8.43674
8.3796
8.40875
8.79947
9.37559
9.91603
10.37
10.7725
11.1518
11.5028
11.8025
12.0259
12.1548
12.1812
12.1034
11.9244
11.6649
11.347
10.9616
10.5061
9.87589
8.84691
1096.16
1024.85
6.85645
7.48415
7.88803
8.158
8.35399
8.49579
8.59104
8.64636
8.66284
8.65559
8.62507
8.56196
8.44529
8.36399
8.38545
8.73731
9.35561
9.89196
10.304
10.6674
11.0243
11.3627
11.6491
11.8528
11.956
11.9504
11.8431
11.636
11.3521
11.0073
10.5865
9.98982
9.00726
1096.72
1024.74
6.77882
7.39958
7.81464
8.10145
8.31124
8.46504
8.57189
8.63883
8.66959
8.67088
8.65441
8.62322
8.56828
8.4583
8.35773
8.38532
8.75593
9.29946
9.7668
10.1449
10.4893
10.8377
11.1793
11.4551
11.6422
11.7314
11.719
11.5913
11.3654
11.0386
10.6461
10.1119
9.23848
1097.52
1024.71
6.72221
7.32579
7.75006
8.052
8.2742
8.4379
8.55379
8.63098
8.67788
8.68605
8.68222
8.66609
8.63594
8.57986
8.46868
8.36408
8.40015
8.76964
9.28482
9.7388
10.1178
10.4719
10.8409
11.1907
11.4492
11.5873
11.6057
11.5286
11.3443
11.0664
10.7032
10.2309
9.4565
1098.01
1024.72
6.66745
7.26831
7.70406
8.01665
8.24768
8.42069
8.54386
8.62521
8.67826
8.69491
8.70305
8.70645
8.7067
8.6913
8.63807
8.51724
8.3907
8.42271
8.74636
9.20103
9.63061
10.0252
10.4193
10.8204
11.1825
11.4329
11.5409
11.4995
11.3262
11.0627
10.7413
10.3053
9.56574
1098.04
1024.71
6.61229
7.21502
7.65947
7.97771
8.21374
8.39377
8.52728
8.6206
8.68154
8.70456
8.71982
8.73422
8.759
8.77895
8.76783
8.69602
8.56405
8.47087
8.57865
8.91579
9.33524
9.76341
10.1961
10.6263
11.0152
11.2904
11.4047
11.3922
11.2577
11.0264
10.7253
10.2977
9.53162
1097.4
1024.64
6.55764
7.17315
7.62414
7.94573
8.18392
8.36622
8.50219
8.59852
8.66314
8.70875
8.73336
8.75854
8.81602
8.89195
8.94101
8.91196
8.79621
8.68733
8.68406
8.93837
9.33737
9.77283
10.2138
10.6345
10.9928
11.2176
11.289
11.2551
11.1219
10.9117
10.624
10.1756
9.32178
1096.54
1024.54
6.51295
7.13867
7.59125
7.9118
8.14972
8.33341
8.47127
8.56827
8.63091
8.6701
8.70481
8.76002
8.84521
8.9952
9.16579
9.20213
9.10568
8.92036
8.82839
8.95505
9.32184
9.76827
10.2159
10.6138
10.9197
11.1099
11.169
11.1318
11.0074
10.8079
10.526
10.0747
9.19481
1096.3
1024.49
6.49255
7.12393
7.57297
7.89026
8.12668
8.3105
8.44932
8.54684
8.6075
8.63878
8.65548
8.68713
8.78512
9.00431
9.28193
9.53152
9.56538
9.35858
9.08535
9.03412
9.26229
9.66904
10.113
10.5023
10.7927
10.9678
11.03
10.9997
10.8878
10.7009
10.4316
10.0005
9.15538
1096.25
1024.41
6.46299
7.10873
7.5524
7.86105
8.09229
8.27445
8.41331
8.51131
8.57263
8.60365
8.61524
8.63636
8.70672
8.90697
9.26734
9.62655
9.83487
9.87641
9.72231
9.43482
9.29398
9.48748
9.84987
10.2632
10.5984
10.8145
10.9078
10.8992
10.8018
10.6303
10.3823
9.99045
9.16055
1096.44
1024.26
6.40881
7.07427
7.51414
7.81678
8.04653
8.23144
8.37513
8.47762
8.54212
8.57542
8.58654
8.57615
8.57903
8.65455
8.9146
9.36436
9.78312
10.0241
10.0975
10.0456
9.8499
9.60399
9.62184
9.85341
10.2221
10.5366
10.7274
10.7878
10.7473
10.6002
10.3679
9.98975
9.2323
1097
1024.05
6.35245
7.04129
7.47518
7.77053
7.99878
8.18812
8.34068
8.45441
8.53029
8.57393
8.58246
8.5801
8.5788
8.61097
8.73101
8.9857
9.39595
9.81876
10.1034
10.2409
10.2481
10.115
9.86051
9.7393
9.86154
10.1676
10.4537
10.6133
10.6316
10.5415
10.3409
10.0084
9.32211
1097.38
1023.91
6.34281
7.03819
7.45721
7.74253
7.96659
8.15725
8.31571
8.43837
8.52385
8.57447
8.59757
8.60014
8.59607
8.61368
8.71564
8.95243
9.30888
9.723
10.0796
10.3172
10.4339
10.4312
10.2867
9.99951
9.83394
9.92846
10.1838
10.4287
10.5278
10.4847
10.3075
9.99676
9.3413
1097.47
1023.9
6.35266
7.04222
7.45245
7.72465
7.94209
8.13201
8.29374
8.42193
8.51459
8.57548
8.60299
8.613
8.62533
8.68069
8.84653
9.14193
9.53021
9.93077
10.2789
10.5531
10.727
10.7968
10.7484
10.5421
10.1719
9.93201
9.99426
10.1724
10.3502
10.3833
10.2666
9.98984
9.41875
1097.83
1023.96
6.4166
7.079
7.45211
7.7044
7.91432
8.10272
8.26656
8.39899
8.49581
8.55896
8.59786
8.61355
8.62588
8.68833
8.85685
9.17545
9.61176
10.0748
10.4928
10.8197
11.0504
11.1985
11.2541
11.1832
10.9379
10.5178
10.1301
10.0864
10.1548
10.2109
10.1579
9.95171
9.48639
1098.12
1024.01
6.43929
7.08296
7.4353
7.67727
7.88239
8.06982
8.23726
8.37697
8.48261
8.55372
8.59732
8.62023
8.64971
8.72031
8.87917
9.16365
9.57971
10.0825
10.5593
10.9469