/*--------------------------------*- C++ -*----------------------------------*\
| =========                 |                                                 |
| \\      /  F ield         | OpenFOAM: The Open Source CFD Toolbox           |
|  \\    /   O peration     | Version:  2.0.x                                 |
|   \\  /    A nd           | Web:      www.OpenFOAM.org                      |
|    \\/     M anipulation  |                                                 |
\*---------------------------------------------------------------------------*/
FoamFile
{
    version     2.0;
    format      ascii;
    class       surfaceScalarField;
    location    "300";
    object      phi;
}
// * * * * * * * * * * * * * * * * * * * * * * * * * * * * * * * * * * * * * //

dimensions      [1 0 -1 0 0 0 0];

internalField   nonuniform List<scalar> 
228225
(
-1.91598e-06
9.64165e-07
6.33766e-07
-4.20171e-06
1.06331e-06
1.22239e-06
-5.72155e-06
1.17693e-07
1.40212e-06
-5.94772e-06
-1.20234e-06
1.42848e-06
-4.71146e-06
-2.63046e-06
1.39418e-06
-2.21801e-06
-3.86819e-06
1.37472e-06
1.33761e-06
-4.88887e-06
1.33323e-06
5.77535e-06
-5.73565e-06
1.29788e-06
1.07408e-05
-6.23885e-06
1.2734e-06
1.59699e-05
-6.49206e-06
1.26297e-06
2.1241e-05
-6.4704e-06
1.19924e-06
2.65252e-05
-6.43507e-06
1.15085e-06
3.16791e-05
-6.26715e-06
1.11327e-06
3.64087e-05
-5.82164e-06
1.09203e-06
4.06353e-05
-5.30344e-06
1.07685e-06
4.42928e-05
-4.72424e-06
1.06669e-06
4.73762e-05
-4.13581e-06
1.0524e-06
4.98155e-05
-3.48868e-06
1.04937e-06
5.16995e-05
-2.92472e-06
1.0406e-06
5.28469e-05
-2.18753e-06
1.04013e-06
5.33224e-05
-1.50795e-06
1.03239e-06
5.32574e-05
-9.54765e-07
1.01975e-06
5.25516e-05
-3.0446e-07
1.01012e-06
5.12702e-05
2.82042e-07
9.99329e-07
4.92124e-05
1.07068e-06
9.87024e-07
4.65576e-05
1.67741e-06
9.77261e-07
4.32695e-05
2.32286e-06
9.65215e-07
3.95013e-05
2.80066e-06
9.67411e-07
3.52067e-05
3.32011e-06
9.74357e-07
3.03666e-05
3.8526e-06
9.87273e-07
2.50174e-05
4.33836e-06
1.01055e-06
1.91952e-05
4.78422e-06
1.03774e-06
1.2871e-05
5.24687e-06
1.07685e-06
5.98133e-06
5.83876e-06
1.05028e-06
5.38003e-06
6.01283e-07
5.11876e-07
2.65583e-08
4.25552e-07
2.1862e-06
-1.45407e-06
8.42823e-07
5.16543e-06
-3.82869e-06
9.6692e-07
9.16272e-06
-6.16339e-06
9.63524e-07
1.37404e-05
-8.13436e-06
9.26034e-07
1.85651e-05
-9.54807e-06
8.54938e-07
2.3276e-05
-1.03586e-05
7.58683e-07
2.76769e-05
-1.0839e-05
7.02293e-07
3.16914e-05
-1.09247e-05
6.71183e-07
3.53169e-05
-1.07746e-05
6.5692e-07
3.85141e-05
-1.03369e-05
6.69312e-07
4.11846e-05
-9.80253e-06
6.96832e-07
4.32951e-05
-9.09666e-06
7.18979e-07
4.49805e-05
-8.24487e-06
7.37714e-07
4.62914e-05
-7.36479e-06
7.50404e-07
4.72714e-05
-6.4631e-06
7.58791e-07
4.79051e-05
-5.53416e-06
7.64598e-07
4.82313e-05
-4.57794e-06
7.62925e-07
4.81708e-05
-3.62316e-06
7.58879e-07
4.78898e-05
-2.66231e-06
7.55683e-07
4.73326e-05
-1.70409e-06
7.53177e-07
4.63299e-05
-7.03977e-07
7.51807e-07
4.48036e-05
4.69916e-07
7.51806e-07
4.30628e-05
1.26839e-06
7.54364e-07
4.09406e-05
2.4304e-06
7.62384e-07
3.843e-05
3.423e-06
7.64908e-07
3.55538e-05
4.43396e-06
7.64984e-07
3.22177e-05
5.36039e-06
7.76139e-07
2.84357e-05
6.30352e-06
7.98399e-07
2.42151e-05
7.24158e-06
8.31361e-07
1.95865e-05
8.08986e-06
8.76774e-07
1.45545e-05
8.88045e-06
9.35445e-07
9.12329e-06
9.68213e-06
9.95606e-07
3.70729e-06
1.03089e-05
9.45417e-07
8.53488e-06
5.52429e-07
1.08441e-06
-1.34166e-06
2.8367e-07
4.42493e-06
-5.28873e-06
4.94004e-07
9.01579e-06
-8.94341e-06
5.23736e-07
1.37943e-05
-1.14483e-05
5.0637e-07
1.80176e-05
-1.28435e-05
4.85722e-07
2.1457e-05
-1.34922e-05
5.04734e-07
2.41291e-05
-1.3567e-05
5.3628e-07
2.60563e-05
-1.33383e-05
5.72066e-07
2.74439e-05
-1.29109e-05
5.98573e-07
2.83815e-05
-1.23295e-05
6.17253e-07
2.89941e-05
-1.15844e-05
6.34863e-07
2.92381e-05
-1.0685e-05
6.38382e-07
2.93021e-05
-9.79414e-06
6.3348e-07
2.92977e-05
-8.8634e-06
6.22908e-07
2.91689e-05
-7.84787e-06
6.11747e-07
2.88537e-05
-6.74742e-06
5.99465e-07
2.83553e-05
-5.62174e-06
5.86001e-07
2.77127e-05
-4.50782e-06
5.72373e-07
2.69562e-05
-3.42603e-06
5.59271e-07
2.61294e-05
-2.38105e-06
5.45468e-07
2.52445e-05
-1.3512e-06
5.31876e-07
2.42739e-05
-2.61489e-07
5.27953e-07
2.33236e-05
8.90609e-07
5.2952e-07
2.22832e-05
1.77838e-06
5.30227e-07
2.12926e-05
2.88473e-06
5.3615e-07
2.00723e-05
4.09379e-06
5.49332e-07
1.85949e-05
5.3435e-06
5.67573e-07
1.68244e-05
6.5528e-06
5.77892e-07
1.47625e-05
7.75964e-06
6.0551e-07
1.24395e-05
8.92499e-06
6.39247e-07
9.83625e-06
1.00111e-05
6.81756e-07
6.91085e-06
1.10729e-05
7.32679e-07
3.77849e-06
1.20388e-05
7.75309e-07
1.00937e-06
1.23722e-05
7.05341e-07
9.21205e-06
3.32191e-07
1.37214e-06
-2.91483e-06
2.0082e-07
4.23837e-06
-8.48667e-06
3.31541e-07
7.11461e-06
-1.2197e-05
3.77202e-07
9.29085e-06
-1.40427e-05
4.18082e-07
1.07266e-05
-1.47433e-05
4.63944e-07
1.16243e-05
-1.48738e-05
4.83914e-07
1.23109e-05
-1.47546e-05
5.01074e-07
1.28763e-05
-1.44108e-05
5.0709e-07
1.33536e-05
-1.38918e-05
5.03566e-07
1.37446e-05
-1.32116e-05
4.90934e-07
1.40616e-05
-1.23818e-05
4.80392e-07
1.42654e-05
-1.13739e-05
4.85207e-07
1.42221e-05
-1.02432e-05
4.92327e-07
1.38848e-05
-9.0212e-06
4.95102e-07
1.33095e-05
-7.75779e-06
4.85125e-07
1.25917e-05
-6.49798e-06
4.68389e-07
1.17828e-05
-5.26176e-06
4.48882e-07
1.09307e-05
-4.08571e-06
4.29998e-07
1.01031e-05
-3.01053e-06
4.11975e-07
9.35508e-06
-2.02923e-06
3.96201e-07
8.70231e-06
-1.08198e-06
3.83515e-07
8.16669e-06
-1.00924e-07
3.75022e-07
8.0238e-06
6.59891e-07
3.73578e-07
7.81633e-06
1.60668e-06
3.79117e-07
7.55339e-06
2.75347e-06
3.94159e-07
7.20185e-06
4.02773e-06
4.17559e-07
6.74067e-06
5.358e-06
4.46645e-07
6.14665e-06
6.67182e-06
4.7495e-07
5.44832e-06
7.96857e-06
4.89363e-07
4.63176e-06
9.22164e-06
5.19851e-07
3.59829e-06
1.04784e-05
5.66066e-07
2.31997e-06
1.17431e-05
6.08072e-07
9.75665e-07
1.2751e-05
6.32131e-07
-5.82129e-08
1.28486e-05
5.57464e-07
8.90181e-06
2.52024e-07
1.08345e-06
-4.13431e-06
1.35945e-07
2.71319e-06
-1.03646e-05
2.48171e-07
3.9896e-06
-1.37799e-05
3.06491e-07
4.84273e-06
-1.52396e-05
3.43671e-07
5.50056e-06
-1.57689e-05
3.67747e-07
6.09294e-06
-1.58531e-05
3.86851e-07
6.59899e-06
-1.5664e-05
4.03289e-07
6.9881e-06
-1.52219e-05
4.21963e-07
7.23808e-06
-1.45835e-05
4.41777e-07
7.34033e-06
-1.37748e-05
4.60995e-07
7.301e-06
-1.28119e-05
4.69453e-07
7.17369e-06
-1.17165e-05
4.69835e-07
6.98174e-06
-1.05151e-05
4.63811e-07
6.72324e-06
-9.21792e-06
4.55211e-07
6.40132e-06
-7.88184e-06
4.45971e-07
6.01979e-06
-6.54757e-06
4.31116e-07
5.61296e-06
-5.2642e-06
4.09273e-07
5.2113e-06
-4.06362e-06
3.79553e-07
4.84056e-06
-2.98793e-06
3.4813e-07
4.52889e-06
-2.03679e-06
3.19242e-07
4.32224e-06
-1.17135e-06
2.96018e-07
4.25426e-06
-3.12753e-07
2.79795e-07
4.17743e-06
4.63738e-07
2.72968e-07
4.09897e-06
1.409e-06
2.76129e-07
4.00791e-06
2.55282e-06
2.91684e-07
3.88802e-06
3.82985e-06
3.17734e-07
3.72228e-06
5.17314e-06
3.50565e-07
3.4761e-06
6.53138e-06
3.86582e-07
3.13006e-06
7.88989e-06
4.24672e-07
2.66242e-06
9.23685e-06
4.52394e-07
2.01903e-06
1.06455e-05
4.76251e-07
1.18899e-06
1.20638e-05
5.09236e-07
3.60107e-07
1.3058e-05
5.21846e-07
-1.93182e-07
1.29586e-05
4.43228e-07
8.53144e-06
1.77192e-07
5.51279e-07
-4.80215e-06
1.16606e-07
1.2211e-06
-1.12583e-05
2.2387e-07
1.7345e-06
-1.45766e-05
2.83291e-07
2.08669e-06
-1.5922e-05
3.30249e-07
2.31312e-06
-1.6361e-05
3.65638e-07
2.44439e-06
-1.63779e-05
3.93554e-07
2.50413e-06
-1.61379e-05
4.14231e-07
2.53299e-06
-1.5681e-05
4.30248e-07
2.54484e-06
-1.50383e-05
4.42931e-07
2.54365e-06
-1.42272e-05
4.53566e-07
2.53405e-06
-1.32661e-05
4.63742e-07
2.52218e-06
-1.2177e-05
4.72501e-07
2.51599e-06
-1.09862e-05
4.7728e-07
2.53761e-06
-9.71517e-06
4.75683e-07
2.57067e-06
-8.38114e-06
4.66292e-07
2.59517e-06
-7.02066e-06
4.48647e-07
2.59126e-06
-5.68347e-06
4.2325e-07
2.54506e-06
-4.4094e-06
3.92072e-07
2.44343e-06
-3.24337e-06
3.57157e-07
2.30778e-06
-2.22219e-06
3.21145e-07
2.1869e-06
-1.33655e-06
2.86184e-07
2.11435e-06
-4.95626e-07
2.5554e-07
2.01936e-06
3.25374e-07
2.33497e-07
1.9642e-06
1.24342e-06
2.20906e-07
1.9545e-06
2.34078e-06
2.21905e-07
1.97736e-06
3.57042e-06
2.36749e-07
2.00968e-06
4.87851e-06
2.62493e-07
2.02074e-06
6.22518e-06
2.95302e-07
1.96826e-06
7.61032e-06
3.32214e-07
1.76431e-06
9.0711e-06
3.69899e-07
1.35434e-06
1.06543e-05
4.01308e-07
7.85623e-07
1.22078e-05
4.24895e-07
2.26055e-07
1.31916e-05
4.26101e-07
-1.30293e-07
1.29663e-05
3.48945e-07
8.27226e-06
1.28902e-07
2.61013e-07
-5.15096e-06
8.79661e-08
5.52784e-07
-1.17306e-05
1.80651e-07
7.57828e-07
-1.50163e-05
2.34735e-07
8.9401e-07
-1.63348e-05
2.76749e-07
9.9356e-07
-1.6776e-05
3.15517e-07
1.07181e-06
-1.68052e-05
3.49164e-07
1.12771e-06
-1.65702e-05
3.7642e-07
1.16462e-06
-1.61179e-05
4.0008e-07
1.18405e-06
-1.54809e-05
4.23266e-07
1.1922e-06
-1.46817e-05
4.46469e-07
1.19955e-06
-1.37412e-05
4.67839e-07
1.21552e-06
-1.26795e-05
4.86523e-07
1.24374e-06
-1.15163e-05
5.02016e-07
1.28835e-06
-1.0273e-05
5.13346e-07
1.36032e-06
-8.97179e-06
5.18768e-07
1.45672e-06
-7.633e-06
5.16037e-07
1.55105e-06
-6.28071e-06
5.03024e-07
1.61494e-06
-4.952e-06
4.78824e-07
1.6227e-06
-3.69585e-06
4.4485e-07
1.56038e-06
-2.56438e-06
4.0465e-07
1.44455e-06
-1.58251e-06
3.61928e-07
1.3221e-06
-6.9418e-07
3.21166e-07
1.19208e-06
1.70565e-07
2.85002e-07
1.1663e-06
1.01404e-06
2.55335e-07
1.25421e-06
2.01895e-06
2.34122e-07
1.44003e-06
3.15763e-06
2.2716e-07
1.66335e-06
4.42132e-06
2.34059e-07
1.8509e-06
5.7857e-06
2.52111e-07
1.92921e-06
7.25402e-06
2.78164e-07
1.82306e-06
8.86823e-06
3.09176e-07
1.48763e-06
1.0651e-05
3.38932e-07
9.78354e-07
1.23599e-05
3.57277e-07
4.45051e-07
1.33693e-05
3.55834e-07
5.15073e-08
1.30758e-05
2.84223e-07
8.22295e-06
1.00822e-07
9.34653e-08
-5.32898e-06
8.47349e-08
1.66425e-07
-1.1981e-05
1.77571e-07
2.07778e-07
-1.52863e-05
2.28777e-07
2.24341e-07
-1.66163e-05
2.64983e-07
2.16218e-07
-1.7067e-05
2.99258e-07
1.90024e-07
-1.71093e-05
3.30379e-07
1.50433e-07
-1.68908e-05
3.60298e-07
1.10166e-07
-1.64655e-05
3.87964e-07
7.85035e-08
-1.58638e-05
4.14656e-07
6.32313e-08
-1.51067e-05
4.4034e-07
7.05597e-08
-1.42131e-05
4.64691e-07
1.06219e-07
-1.32026e-05
4.87574e-07
1.76446e-07
-1.20949e-05
5.08444e-07
2.85658e-07
-1.09086e-05
5.26437e-07
4.34887e-07
-9.6613e-06
5.40401e-07
6.24074e-07
-8.37095e-06
5.48882e-07
8.48336e-07
-7.05486e-06
5.50028e-07
1.0864e-06
-5.73177e-06
5.41857e-07
1.29696e-06
-4.42929e-06
5.23046e-07
1.42806e-06
-3.18909e-06
4.93785e-07
1.44392e-06
-2.05374e-06
4.55562e-07
1.37165e-06
-1.03321e-06
4.11516e-07
1.24549e-06
-6.95381e-08
3.66491e-07
1.16271e-06
7.69197e-07
3.27865e-07
1.18635e-06
1.70147e-06
2.94092e-07
1.33163e-06
2.74584e-06
2.66781e-07
1.56592e-06
3.93566e-06
2.51646e-07
1.80168e-06
5.30073e-06
2.49471e-07
1.93386e-06
6.86266e-06
2.59453e-07
1.87505e-06
8.64906e-06
2.78227e-07
1.58076e-06
1.06436e-05
3.01872e-07
1.09687e-06
1.25326e-05
3.11438e-07
5.67221e-07
1.35988e-05
3.00302e-07
1.39165e-07
1.32671e-05
2.37026e-07
8.27097e-06
9.11556e-08
-3.47394e-08
-5.37305e-06
7.90257e-08
-1.06236e-07
-1.20619e-05
1.52521e-07
-1.56775e-07
-1.54188e-05
1.83117e-07
-1.85159e-07
-1.68069e-05
2.19043e-07
-2.06084e-07
-1.73039e-05
2.57896e-07
-2.25515e-07
-1.73881e-05
2.98273e-07
-2.37607e-07
-1.72119e-05
3.33255e-07
-2.36842e-07
-1.68314e-05
3.65174e-07
-2.20074e-07
-1.62782e-05
3.97646e-07
-1.815e-07
-1.55742e-05
4.28958e-07
-1.16281e-07
-1.47382e-05
4.5992e-07
-2.06985e-08
-1.37882e-05
4.9008e-07
1.07445e-07
-1.27418e-05
5.18876e-07
2.69572e-07
-1.16162e-05
5.45609e-07
4.66515e-07
-1.04274e-05
5.6929e-07
6.97645e-07
-9.19058e-06
5.88627e-07
9.61329e-07
-7.92052e-06
6.02114e-07
1.25166e-06
-6.63e-06
6.08052e-07
1.55071e-06
-5.33295e-06
6.04778e-07
1.82285e-06
-4.05221e-06
5.91176e-07
2.02521e-06
-2.82321e-06
5.67323e-07
2.13539e-06
-1.67584e-06
5.32676e-07
2.16064e-06
-5.84849e-07
4.90291e-07
2.06118e-06
4.20516e-07
4.48387e-07
2.01047e-06
1.34864e-06
4.0382e-07
2.00804e-06
2.38302e-06
3.65538e-07
2.08119e-06
3.52853e-06
3.3426e-07
2.20569e-06
4.86354e-06
3.12974e-07
2.29692e-06
6.46914e-06
3.02577e-07
2.24184e-06
8.40254e-06
3.01864e-07
1.94738e-06
1.06319e-05
3.06403e-07
1.44838e-06
1.27296e-05
3.02172e-07
8.38913e-07
1.39253e-05
2.83242e-07
2.84509e-07
1.36013e-05
2.20569e-07
8.46311e-06
9.23831e-08
-3.18626e-08
-5.41267e-06
7.16682e-08
-1.07024e-07
-1.2114e-05
1.27433e-07
-1.62083e-07
-1.5506e-05
1.42423e-07
-1.78471e-07
-1.69602e-05
1.69819e-07
-1.92182e-07
-1.75146e-05
2.24434e-07
-2.04056e-07
-1.76428e-05
2.66638e-07
-2.10152e-07
-1.75075e-05
3.01763e-07
-2.03615e-07
-1.71692e-05
3.31357e-07
-1.82487e-07
-1.66617e-05
3.6242e-07
-1.46424e-07
-1.60075e-05
3.97322e-07
-9.20682e-08
-1.5225e-05
4.32585e-07
-1.50472e-08
-1.43318e-05
4.66679e-07
8.86412e-08
-1.33451e-05
4.99716e-07
2.22856e-07
-1.2282e-05
5.31621e-07
3.91295e-07
-1.11577e-05
5.61933e-07
5.96957e-07
-9.98589e-06
5.89748e-07
8.41742e-07
-8.77898e-06
6.13781e-07
1.12683e-06
-7.54734e-06
6.3237e-07
1.44928e-06
-6.29879e-06
6.43517e-07
1.79576e-06
-5.04376e-06
6.45204e-07
2.13856e-06
-3.80229e-06
6.36423e-07
2.44996e-06
-2.60241e-06
6.15335e-07
2.74412e-06
-1.46177e-06
5.82936e-07
2.91126e-06
-2.88192e-07
5.4174e-07
2.95872e-06
8.00891e-07
5.00469e-07
3.03525e-06
1.85628e-06
4.50414e-07
3.08035e-06
3.08044e-06
4.03206e-07
3.10528e-06
4.47399e-06
3.64813e-07
3.07524e-06
6.16018e-06
3.39197e-07
2.89652e-06
8.25751e-06
3.23939e-07
2.51468e-06
1.06987e-05
3.152e-07
1.86113e-06
1.30757e-05
3.07506e-07
1.07219e-06
1.44295e-05
2.84878e-07
3.56037e-07
1.40952e-05
2.22442e-07
8.71866e-06
1.00494e-07
-7.69396e-08
-5.40818e-06
7.26232e-08
-1.94646e-07
-1.21117e-05
1.15562e-07
-2.60623e-07
-1.55525e-05
1.12602e-07
-2.79147e-07
-1.70763e-05
1.34726e-07
-2.66359e-07
-1.76893e-05
1.62028e-07
-2.46872e-07
-1.78668e-05
2.04568e-07
-2.23083e-07
-1.77797e-05
2.48476e-07
-1.89769e-07
-1.74917e-05
2.89159e-07
-1.42462e-07
-1.70368e-05
3.27939e-07
-7.80667e-08
-1.64383e-05
3.66518e-07
7.60882e-09
-1.5714e-05
4.03314e-07
1.16071e-07
-1.48804e-05
4.40207e-07
2.48113e-07
-1.39542e-05
4.77055e-07
4.04323e-07
-1.29516e-05
5.13486e-07
5.8546e-07
-1.18879e-05
5.4914e-07
7.92556e-07
-1.07764e-05
5.83533e-07
1.02647e-06
-9.62863e-06
6.15849e-07
1.28908e-06
-8.4547e-06
6.44865e-07
1.583e-06
-7.26151e-06
6.68916e-07
1.9067e-06
-6.05331e-06
6.85997e-07
2.24865e-06
-4.83787e-06
6.93792e-07
2.5911e-06
-3.63525e-06
6.90567e-07
2.92606e-06
-2.47005e-06
6.73528e-07
3.2786e-06
-1.28309e-06
6.42576e-07
3.48411e-06
-3.73846e-09
5.9934e-07
3.65582e-06
1.12977e-06
5.55039e-07
3.72864e-06
2.51407e-06
4.93802e-07
3.65057e-06
4.12218e-06
4.30152e-07
3.43865e-06
5.99845e-06
3.73924e-07
3.06265e-06
8.29307e-06
3.40676e-07
2.47372e-06
1.09784e-05
3.09405e-07
1.67932e-06
1.35807e-05
2.89565e-07
8.79847e-07
1.49656e-05
2.63547e-07
2.35402e-07
1.45342e-05
2.05695e-07
8.85773e-06
9.63265e-08
-1.0126e-07
-5.37158e-06
6.47974e-08
-2.24223e-07
-1.20651e-05
7.63766e-08
-2.72725e-07
-1.55685e-05
6.45206e-08
-2.3585e-07
-1.71717e-05
5.85956e-08
-1.75176e-07
-1.78421e-05
9.20975e-08
-1.12902e-07
-1.80683e-05
1.39239e-07
-5.29023e-08
-1.8028e-05
1.88319e-07
7.22935e-09
-1.7789e-05
2.3726e-07
7.59418e-08
-1.73845e-05
2.78994e-07
1.59163e-07
-1.68379e-05
3.16391e-07
2.57123e-07
-1.61666e-05
3.54682e-07
3.6793e-07
-1.53865e-05
3.95348e-07
4.90868e-07
-1.45138e-05
4.36729e-07
6.26225e-07
-1.35645e-05
4.77596e-07
7.74758e-07
-1.2554e-05
5.17642e-07
9.37274e-07
-1.1496e-05
5.57098e-07
1.11459e-06
-1.04017e-05
5.95738e-07
1.30705e-06
-9.28009e-06
6.32951e-07
1.51591e-06
-8.13812e-06
6.67764e-07
1.74286e-06
-6.97885e-06
6.98614e-07
1.98608e-06
-5.80433e-06
7.23262e-07
2.23107e-06
-4.61987e-06
7.3964e-07
2.45195e-06
-3.43575e-06
7.44844e-07
2.68646e-06
-2.25328e-06
7.35689e-07
2.95484e-06
-9.82295e-07
7.10193e-07
3.0436e-06
3.69268e-07
6.71752e-07
3.13184e-06
1.8095e-06
6.16335e-07
3.05631e-06
3.65326e-06
5.4444e-07
2.79537e-06
5.78725e-06
4.7215e-07
2.37902e-06
8.30168e-06
4.07739e-07
1.81267e-06
1.12052e-05
3.39614e-07
1.19258e-06
1.39157e-05
2.85138e-07
6.07898e-07
1.5312e-05
2.38242e-07
1.4827e-07
1.48162e-05
1.77645e-07
8.91975e-06
8.6259e-08
-1.18405e-07
-5.31013e-06
5.71119e-08
-2.4437e-07
-1.1991e-05
5.20013e-08
-2.46427e-07
-1.55701e-05
3.70971e-09
-1.52685e-07
-1.7264e-05
-1.45532e-09
-1.25314e-08
-1.80064e-05
2.41925e-08
1.40332e-07
-1.82873e-05
6.62232e-08
2.92422e-07
-1.82927e-05
1.12626e-07
4.42339e-07
-1.80984e-05
1.59507e-07
5.87964e-07
-1.77361e-05
2.05966e-07
7.28966e-07
-1.7231e-05
2.52101e-07
8.65042e-07
-1.66009e-05
2.98312e-07
9.98608e-07
-1.5862e-05
3.41971e-07
1.13144e-06
-1.50306e-05
3.83973e-07
1.26405e-06
-1.4123e-05
4.25885e-07
1.39662e-06
-1.31549e-05
4.68335e-07
1.52988e-06
-1.21404e-05
5.1114e-07
1.66475e-06
-1.10907e-05
5.54178e-07
1.8017e-06
-1.00142e-05
5.97217e-07
1.94103e-06
-8.91715e-06
6.39776e-07
2.08391e-06
-7.80246e-06
6.80804e-07
2.23105e-06
-6.67e-06
7.18601e-07
2.37929e-06
-5.51937e-06
7.51343e-07
2.51996e-06
-4.35293e-06
7.76604e-07
2.6509e-06
-3.17579e-06
7.91678e-07
2.85033e-06
-1.97385e-06
7.92239e-07
2.9705e-06
-5.23929e-07
7.73159e-07
2.9742e-06
1.06639e-06
7.3956e-07
3.06138e-06
2.89102e-06
6.75221e-07
2.97403e-06
5.28397e-06
5.9075e-07
2.69432e-06
8.08042e-06
5.01095e-07
2.22483e-06
1.12327e-05
4.42014e-07
1.64347e-06
1.41206e-05
3.76536e-07
9.6942e-07
1.56745e-05
3.11597e-07
3.4689e-07
1.52068e-05
2.32093e-07
9.14936e-06
1.17262e-07
-1.01329e-07
-5.2516e-06
4.28893e-08
-1.73459e-07
-1.19152e-05
-3.58117e-09
-1.089e-07
-1.55809e-05
-5.36429e-08
7.03724e-08
-1.73671e-05
-7.60899e-08
2.95786e-07
-1.81756e-05
-5.61191e-08
5.28046e-07
-1.85037e-05
-1.58242e-08
7.53244e-07
-1.85485e-05
3.06326e-08
9.69409e-07
-1.83929e-05
7.83356e-08
1.17338e-06
-1.80657e-05
1.2562e-07
1.36456e-06
-1.75945e-05
1.72364e-07
1.54274e-06
-1.69979e-05
2.18826e-07
1.70882e-06
-1.62925e-05
2.64425e-07
1.86518e-06
-1.54948e-05
3.07885e-07
2.0111e-06
-1.46216e-05
3.52734e-07
2.14711e-06
-1.3689e-05
3.98046e-07
2.27434e-06
-1.27112e-05
4.43591e-07
2.39423e-06
-1.17001e-05
4.89477e-07
2.50823e-06
-1.0664e-05
5.35763e-07
2.6171e-06
-9.60857e-06
5.82462e-07
2.72186e-06
-8.53665e-06
6.29328e-07
2.824e-06
-7.44784e-06
6.75581e-07
2.92442e-06
-6.33954e-06
7.19626e-07
3.02201e-06
-5.2101e-06
7.59429e-07
3.11458e-06
-4.06149e-06
7.92954e-07
3.21272e-06
-2.88815e-06
8.15931e-07
3.40872e-06
-1.54447e-06
8.2427e-07
3.47786e-06
1.90652e-07
8.06278e-07
3.65333e-06
1.94981e-06
7.65376e-07
3.62349e-06
4.62889e-06
6.84538e-07
3.31534e-06
7.80337e-06
5.84862e-07
2.76208e-06
1.12856e-05
5.00102e-07
1.98422e-06
1.44717e-05
4.26528e-07
1.12254e-06
1.61721e-05
3.63878e-07
3.7112e-07
1.56771e-05
2.8074e-07
9.37297e-06
1.47514e-07
-1.09852e-07
-5.1663e-06
2.47475e-08
-1.22646e-07
-1.18507e-05
-5.1585e-08
3.33528e-08
-1.56175e-05
-1.19292e-07
3.29507e-07
-1.75223e-05
-1.40892e-07
6.8218e-07
-1.84026e-05
-1.25683e-07
1.04148e-06
-1.87718e-05
-9.11635e-08
1.38742e-06
-1.88454e-05
-4.90058e-08
1.71491e-06
-1.87165e-05
-3.8788e-09
2.01975e-06
-1.8413e-05
4.25346e-08
2.29947e-06
-1.7964e-05
8.98331e-08
2.55079e-06
-1.73874e-05
1.38129e-07
2.77278e-06
-1.67011e-05
1.86645e-07
2.96667e-06
-1.59227e-05
2.33973e-07
3.13359e-06
-1.50693e-05
2.80794e-07
3.27545e-06
-1.41576e-05
3.26794e-07
3.39378e-06
-1.3202e-05
3.7252e-07
3.4889e-06
-1.22145e-05
4.19306e-07
3.56254e-06
-1.12034e-05
4.65763e-07
3.61501e-06
-1.01739e-05
5.12938e-07
3.64525e-06
-9.12835e-06
5.61492e-07
3.65189e-06
-8.0659e-06
6.11457e-07
3.63424e-06
-6.98411e-06
6.62244e-07
3.59193e-06
-5.88048e-06
7.12719e-07
3.52029e-06
-4.7524e-06
7.62584e-07
3.41816e-06
-3.59423e-06
8.08238e-07
3.38723e-06
-2.35875e-06
8.45235e-07
3.41184e-06
-6.98132e-07
8.64208e-07
3.39438e-06
1.11787e-06
8.4942e-07
3.38913e-06
3.85419e-06
7.79954e-07
3.03284e-06
7.4972e-06
6.62455e-07
2.43578e-06
1.13465e-05
5.36209e-07
1.59844e-06
1.48748e-05
4.34185e-07
8.15088e-07
1.65992e-05
3.56226e-07
2.11394e-07
1.60051e-05
2.75531e-07
9.43258e-06
1.51764e-07
-7.97292e-08
-5.08593e-06
-4.75969e-10
3.52532e-09
-1.18285e-05
-1.05321e-07
3.12571e-07
-1.57408e-05
-1.85658e-07
7.72534e-07
-1.77685e-05
-2.13661e-07
1.28908e-06
-1.87151e-05
-2.03923e-07
1.80764e-06
-1.91149e-05
-1.75446e-07
2.30213e-06
-1.92009e-05
-1.38933e-07
2.76437e-06
-1.908e-05
-9.86906e-08
3.18714e-06
-1.87797e-05
-5.59832e-08
3.5665e-06
-1.83326e-05
-1.07974e-08
3.90084e-06
-1.77587e-05
3.69932e-08
4.18979e-06
-1.7077e-05
8.68881e-08
4.432e-06
-1.63038e-05
1.38943e-07
4.63212e-06
-1.5457e-05
1.87545e-07
4.79466e-06
-1.45533e-05
2.33157e-07
4.9233e-06
-1.36065e-05
2.75815e-07
5.01682e-06
-1.26279e-05
3.1985e-07
5.07406e-06
-1.16253e-05
3.64536e-07
5.09335e-06
-1.06037e-05
4.10365e-07
5.07207e-06
-9.56517e-06
4.57974e-07
5.00401e-06
-8.50584e-06
5.07845e-07
4.88218e-06
-7.42252e-06
5.60056e-07
4.70294e-06
-6.31559e-06
6.14129e-07
4.4684e-06
-5.18951e-06
6.71379e-07
4.19076e-06
-4.04807e-06
7.3117e-07
3.90367e-06
-2.86194e-06
7.89887e-07
3.65621e-06
-1.30279e-06
8.51621e-07
3.21668e-06
6.67635e-07
8.89185e-07
3.17708e-06
3.01126e-06
8.81887e-07
3.08108e-06
6.80067e-06
7.91845e-07
2.61187e-06
1.11512e-05
6.63875e-07
1.94028e-06
1.50447e-05
5.01378e-07
1.17437e-06
1.69771e-05
3.87524e-07
4.57239e-07
1.64311e-05
2.90524e-07
9.72182e-06
1.67984e-07
-8.62902e-09
-5.04112e-06
-3.59458e-08
2.12008e-07
-1.18914e-05
-1.57566e-07
7.04346e-07
-1.59897e-05
-2.43392e-07
1.35453e-06
-1.815e-05
-2.68586e-07
2.06344e-06
-1.91607e-05
-2.63239e-07
2.77669e-06
-1.95842e-05
-2.43883e-07
3.4661e-06
-1.9673e-05
-2.1725e-07
4.122e-06
-1.95494e-05
-1.86449e-07
4.73062e-06
-1.92362e-05
-1.52076e-07
5.28247e-06
-1.87707e-05
-1.13695e-07
5.77325e-06
-1.8178e-05
-7.14057e-08
6.20283e-06
-1.74802e-05
-2.62611e-08
6.57502e-06
-1.66964e-05
2.0463e-08
6.89519e-06
-1.58448e-05
6.76897e-08
7.16817e-06
-1.49406e-05
1.14351e-07
7.39656e-06
-1.39943e-05
1.59401e-07
7.58132e-06
-1.30157e-05
2.03075e-07
7.71935e-06
-1.20108e-05
2.47599e-07
7.80999e-06
-1.09841e-05
2.89884e-07
7.85286e-06
-9.93931e-06
3.31343e-07
7.82848e-06
-8.85588e-06
3.74493e-07
7.72062e-06
-7.73525e-06
4.20647e-07
7.51613e-06
-6.5802e-06
4.69156e-07
7.20687e-06
-5.39741e-06
5.17205e-07
6.79048e-06
-4.20825e-06
5.76603e-07
6.28712e-06
-3.00548e-06
6.4692e-07
5.76484e-06
-1.50568e-06
7.25162e-07
5.04632e-06
5.79206e-07
8.06925e-07
4.68006e-06
2.52244e-06
8.55014e-07
4.48091e-06
6.1451e-06
8.54621e-07
4.0017e-06
1.08856e-05
7.44749e-07
3.15824e-06
1.52758e-05
6.12234e-07
2.00244e-06
1.76539e-05
4.78842e-07
8.38501e-07
1.72343e-05
3.60519e-07
1.03539e-05
2.06376e-07
1.3042e-07
-5.09573e-06
-7.56368e-08
6.21435e-07
-1.21556e-05
-2.26761e-07
1.36699e-06
-1.644e-05
-2.95133e-07
2.23162e-06
-1.87016e-05
-3.12953e-07
3.12954e-06
-1.97472e-05
-3.11409e-07
4.02087e-06
-2.01736e-05
-3.01915e-07
4.88334e-06
-2.02484e-05
-2.87042e-07
5.71306e-06
-2.01107e-05
-2.68334e-07
6.49665e-06
-1.97736e-05
-2.46131e-07
7.22251e-06
-1.92772e-05
-2.19302e-07
7.88157e-06
-1.86496e-05
-1.8738e-07
8.4692e-06
-1.79171e-05
-1.50717e-07
8.98657e-06
-1.71035e-05
-1.10258e-07
9.43779e-06
-1.62288e-05
-6.72345e-08
9.82825e-06
-1.53082e-05
-2.28563e-08
1.01631e-05
-1.4351e-05
2.19013e-08
1.04487e-05
-1.33626e-05
6.1349e-08
1.06829e-05
-1.23398e-05
9.47068e-08
1.08429e-05
-1.12727e-05
1.28534e-07
1.0907e-05
-1.01642e-05
1.60764e-07
1.08592e-05
-9.0075e-06
1.99374e-07
1.0696e-05
-7.81602e-06
2.43912e-07
1.04103e-05
-6.59232e-06
2.97716e-07
9.98619e-06
-5.34257e-06
3.69201e-07
9.43338e-06
-4.09209e-06
4.36516e-07
8.75415e-06
-2.82566e-06
4.99248e-07
7.98033e-06
-1.29933e-06
5.67293e-07
7.17494e-06
7.37323e-07
6.47078e-07
6.4455e-06
2.55698e-06
6.9467e-07
5.68049e-06
6.17456e-06
7.35326e-07
4.70585e-06
1.11536e-05
7.06483e-07
3.3671e-06
1.60014e-05
6.13008e-07
1.93601e-06
1.8585e-05
4.99946e-07
6.88084e-07
1.81059e-05
3.76215e-07
1.08414e-05
2.00607e-07
2.75323e-07
-5.25192e-06
-1.19003e-07
1.01923e-06
-1.26352e-05
-2.64154e-07
2.01003e-06
-1.71183e-05
-3.12439e-07
3.07058e-06
-1.94399e-05
-3.22283e-07
4.13103e-06
-2.04815e-05
-3.2603e-07
5.16886e-06
-2.0883e-05
-3.28292e-07
6.16971e-06
-2.09218e-05
-3.27425e-07
7.13425e-06
-2.0752e-05
-3.23208e-07
8.05013e-06
-2.03732e-05
-3.16293e-07
8.9092e-06
-1.98311e-05
-3.05053e-07
9.70592e-06
-1.91575e-05
-2.8875e-07
1.04368e-05
-1.83808e-05
-2.67064e-07
1.10997e-05
-1.7526e-05
-2.40355e-07
1.16937e-05
-1.66131e-05
-2.09563e-07
1.22183e-05
-1.56566e-05
-1.76052e-07
1.26712e-05
-1.46624e-05
-1.4144e-07
1.30457e-05
-1.36297e-05
-1.07325e-07
1.33168e-05
-1.25347e-05
-7.60808e-08
1.34588e-05
-1.13691e-05
-4.54596e-08
1.34186e-05
-1.01219e-05
-1.97371e-09
1.31993e-05
-8.8299e-06
4.17339e-08
1.28109e-05
-7.51464e-06
8.72165e-08
1.22762e-05
-6.1888e-06
1.31243e-07
1.16097e-05
-4.84784e-06
1.71885e-07
1.07697e-05
-3.47648e-06
2.24409e-07
9.75722e-06
-2.10063e-06
2.87534e-07
8.66186e-06
-5.69183e-07
3.65259e-07
7.82994e-06
1.10303e-06
4.66222e-07
6.66777e-06
3.17843e-06
5.40696e-07
5.25002e-06
6.98533e-06
6.06938e-07
3.63432e-06
1.21791e-05
5.90057e-07
2.06348e-06
1.70703e-05
5.01937e-07
9.1223e-07
1.93257e-05
4.10495e-07
1.62212e-07
1.85597e-05
2.96141e-07
1.08957e-05
1.07914e-07
4.77142e-07
-5.57373e-06
-1.55382e-07
1.49394e-06
-1.33699e-05
-2.82203e-07
2.6789e-06
-1.8002e-05
-3.01247e-07
3.84721e-06
-2.03068e-05
-3.01438e-07
4.97274e-06
-2.12964e-05
-3.10697e-07
6.05944e-06
-2.16445e-05
-3.2523e-07
7.11116e-06
-2.16344e-05
-3.39083e-07
8.12258e-06
-2.14131e-05
-3.50324e-07
9.08652e-06
-2.09771e-05
-3.60034e-07
9.99853e-06
-2.03766e-05
-3.66524e-07
1.08571e-05
-1.9647e-05
-3.69046e-07
1.16627e-05
-1.88197e-05
-3.66786e-07
1.24162e-05
-1.792e-05
-3.59446e-07
1.31168e-05
-1.69664e-05
-3.47316e-07
1.37609e-05
-1.59696e-05
-3.31104e-07
1.43202e-05
-1.4909e-05
-3.12716e-07
1.47534e-05
-1.37689e-05
-2.94002e-07
1.50252e-05
-1.25339e-05
-2.7252e-07
1.50932e-05
-1.11872e-05
-2.49884e-07
1.49158e-05
-9.71043e-06
-2.34105e-07
1.44638e-05
-8.16304e-06
-2.14813e-07
1.37515e-05
-6.61477e-06
-1.87513e-07
1.28007e-05
-5.08823e-06
-1.49606e-07
1.16388e-05
-3.58588e-06
-9.99371e-08
1.03397e-05
-2.14464e-06
-3.25507e-08
8.88546e-06
-7.08965e-07
6.27291e-08
7.53281e-06
5.94072e-07
1.89657e-07
6.39692e-06
1.93665e-06
3.02643e-07
4.93694e-06
4.20524e-06
4.33699e-07
3.408e-06
7.97205e-06
5.42767e-07
2.01331e-06
1.30522e-05
5.22131e-07
9.34015e-07
1.77298e-05
4.20194e-07
2.80947e-07
1.96722e-05
3.07149e-07
-4.6584e-08
1.86952e-05
1.92713e-07
1.08039e-05
4.52608e-08
6.12004e-07
-6.01531e-06
-1.70578e-07
1.76889e-06
-1.42686e-05
-2.58277e-07
2.97664e-06
-1.89621e-05
-2.47787e-07
4.07848e-06
-2.11693e-05
-2.39345e-07
5.10356e-06
-2.20699e-05
-2.51577e-07
6.08382e-06
-2.23506e-05
-2.74193e-07
7.04046e-06
-2.2293e-05
-2.98092e-07
7.95297e-06
-2.20043e-05
-3.21329e-07
8.82744e-06
-2.15075e-05
-3.44043e-07
9.66696e-06
-2.08499e-05
-3.6629e-07
1.04759e-05
-2.00684e-05
-3.87564e-07
1.12592e-05
-1.91964e-05
-4.06621e-07
1.20195e-05
-1.82576e-05
-4.2269e-07
1.27509e-05
-1.72621e-05
-4.35737e-07
1.34277e-05
-1.62018e-05
-4.44629e-07
1.40323e-05
-1.5056e-05
-4.57499e-07
1.44858e-05
-1.37476e-05
-4.74822e-07
1.46732e-05
-1.22284e-05
-4.92886e-07
1.45241e-05
-1.05202e-05
-5.17822e-07
1.40515e-05
-8.69723e-06
-5.40545e-07
1.32743e-05
-6.83423e-06
-5.51621e-07
1.22518e-05
-5.0484e-06
-5.4376e-07
1.10512e-05
-3.37369e-06
-5.1392e-07
9.77599e-06
-1.8459e-06
-4.64726e-07
8.44985e-06
-4.44122e-07
-3.74309e-07
7.2021e-06
7.94703e-07
-2.55833e-07
5.99177e-06
1.92923e-06
-1.24732e-07
4.61244e-06
3.28833e-06
2.78039e-08
3.26108e-06
5.33625e-06
2.20548e-07
2.12366e-06
8.68552e-06
4.24154e-07
1.22208e-06
1.34208e-05
5.33194e-07
6.55542e-07
1.78485e-05
4.48013e-07
2.39836e-07
1.97726e-05
3.15568e-07
-2.71977e-08
1.87957e-05
1.669e-07
1.07743e-05
2.38087e-09
6.70067e-07
-6.52414e-06
-1.61595e-07
1.77406e-06
-1.51732e-05
-1.99552e-07
2.79935e-06
-1.98224e-05
-1.65081e-07
3.66377e-06
-2.18822e-05
-1.51636e-07
4.44048e-06
-2.26822e-05
-1.64567e-07
5.17697e-06
-2.28972e-05
-1.90016e-07
5.88532e-06
-2.2784e-05
-2.17477e-07
6.53509e-06
-2.24108e-05
-2.43422e-07
7.1432e-06
-2.18452e-05
-2.70612e-07
7.73101e-06
-2.11351e-05
-3.02784e-07
8.32025e-06
-2.03198e-05
-3.37949e-07
8.92012e-06
-1.9423e-05
-3.73493e-07
9.53411e-06
-1.8463e-05
-4.0877e-07
1.01578e-05
-1.74402e-05
-4.45664e-07
1.07716e-05
-1.63196e-05
-4.96264e-07
1.12815e-05
-1.5019e-05
-5.47081e-07
1.14958e-05
-1.33583e-05
-6.0389e-07
1.12492e-05
-1.1297e-05
-6.8496e-07
1.0562e-05
-9.04838e-06
-7.84883e-07
9.64591e-06
-6.90049e-06
-8.80834e-07
8.64505e-06
-4.88647e-06
-9.47055e-07
7.65739e-06
-3.09007e-06
-9.70805e-07
6.76387e-06
-1.53223e-06
-9.4803e-07
5.97337e-06
-1.76777e-07
-8.78676e-07
5.22704e-06
1.07558e-06
-7.73388e-07
4.51557e-06
2.15036e-06
-6.44161e-07
3.65325e-06
3.28328e-06
-4.91651e-07
2.67956e-06
4.56457e-06
-3.02422e-07
1.76727e-06
6.31711e-06
-6.84087e-08
1.10264e-06
9.15652e-06
1.93835e-07
7.31345e-07
1.3429e-05
3.63248e-07
4.41365e-07
1.76839e-05
4.5478e-07
1.39194e-07
1.97093e-05
3.65486e-07
-7.22959e-08
1.88102e-05
1.97111e-07
1.07206e-05
-1.857e-08
5.97398e-07
-6.99708e-06
-1.2487e-07
1.39485e-06
-1.58552e-05
-1.15774e-07
2.02796e-06
-2.03864e-05
-6.93092e-08
2.50631e-06
-2.23078e-05
-5.29266e-08
2.91492e-06
-2.30296e-05
-6.14071e-08
3.29534e-06
-2.31963e-05
-8.15229e-08
3.64995e-06
-2.30346e-05
-1.04153e-07
3.99023e-06
-2.26194e-05
-1.31753e-07
4.32327e-06
-2.20155e-05
-1.62821e-07
4.65486e-06
-2.12638e-05
-2.03054e-07
4.96614e-06
-2.03939e-05
-2.37403e-07
5.25249e-06
-1.94393e-05
-2.70229e-07
5.50552e-06
-1.84127e-05
-3.03508e-07
5.70663e-06
-1.73021e-05
-3.39418e-07
5.81548e-06
-1.60514e-05
-3.77283e-07
5.75639e-06
-1.45289e-05
-4.31281e-07
5.45444e-06
-1.25416e-05
-5.14981e-07
4.82718e-06
-9.99308e-06
-6.76918e-07
3.8618e-06
-7.18983e-06
-8.93453e-07
2.75248e-06
-4.69226e-06
-1.09916e-06
1.89744e-06
-2.79247e-06
-1.23915e-06
1.37348e-06
-1.2558e-06
-1.31046e-06
1.14953e-06
1.82038e-08
-1.32659e-06
1.11929e-06
1.15903e-06
-1.30563e-06
1.20818e-06
2.22892e-06
-1.24224e-06
1.19467e-06
3.29681e-06
-1.13289e-06
1.07799e-06
4.3747e-06
-9.74644e-07
8.56872e-07
5.54638e-06
-7.60486e-07
5.97452e-07
7.06142e-06
-4.8456e-07
4.44256e-07
9.46458e-06
-1.54516e-07
4.00311e-07
1.332e-05
1.53319e-07
2.33488e-07
1.75303e-05
3.20747e-07