/*--------------------------------*- C++ -*----------------------------------*\
| =========                 |                                                 |
| \\      /  F ield         | OpenFOAM: The Open Source CFD Toolbox           |
|  \\    /   O peration     | Version:  2.0.x                                 |
|   \\  /    A nd           | Web:      www.OpenFOAM.org                      |
|    \\/     M anipulation  |                                                 |
\*---------------------------------------------------------------------------*/
FoamFile
{
    version     2.0;
    format      ascii;
    class       volScalarField;
    location    "300";
    object      T;
}
// * * * * * * * * * * * * * * * * * * * * * * * * * * * * * * * * * * * * * //

dimensions      [0 0 0 1 0 0 0];

internalField   nonuniform List<scalar> 
78750
(
288.458
288.915
289.198
289.386
289.536
289.671
289.792
289.904
290.007
290.103
290.19
290.271
290.344
290.41
290.469
290.52
290.565
290.602
290.634
290.658
290.673
290.687
290.686
290.685
290.683
290.682
290.681
290.679
290.678
290.675
290.675
290.693
290.95
293.186
301.041
288.319
288.617
288.87
289.132
289.392
289.638
289.872
290.097
290.307
290.503
290.683
290.85
291.007
291.151
291.279
291.393
291.492
291.575
291.643
291.694
291.728
291.745
291.745
291.737
291.699
291.638
291.554
291.455
291.336
291.202
291.056
290.986
291.219
293.634
301.278
288.363
288.793
289.227
289.651
290.039
290.38
290.67
290.918
291.136
291.333
291.513
291.676
291.815
291.931
292.025
292.095
292.142
292.169
292.178
292.176
292.169
292.158
292.14
292.116
292.082
292.031
291.961
291.864
291.735
291.572
291.42
291.472
292.294
295.237
302.205
288.454
289.066
289.64
290.115
290.46
290.717
290.929
291.119
291.294
291.459
291.615
291.761
291.893
292.005
292.094
292.156
292.194
292.208
292.207
292.195
292.177
292.157
292.139
292.117
292.087
292.043
291.982
291.898
291.798
291.711
291.744
292.181
293.557
296.662
303.089
288.504
289.188
289.766
290.196
290.517
290.781
291.019
291.24
291.447
291.637
291.808
291.963
292.098
292.21
292.294
292.341
292.348
292.327
292.281
292.227
292.176
292.134
292.104
292.081
292.059
292.026
291.975
291.91
291.854
291.871
292.115
292.918
294.599
297.74
303.733
288.542
289.272
289.859
290.277
290.582
290.834
291.061
291.272
291.47
291.653
291.824
291.978
292.114
292.226
292.311
292.358
292.371
292.351
292.3
292.232
292.159
292.091
292.035
291.992
291.963
291.942
291.926
291.915
291.944
292.105
292.576
293.654
295.482
298.558
304.168
288.548
289.281
289.866
290.284
290.587
290.838
291.065
291.276
291.472
291.657
291.827
291.983
292.122
292.245
292.351
292.435
292.479
292.481
292.441
292.367
292.272
292.172
292.077
292.002
291.953
291.929
291.931
291.976
292.101
292.396
293.048
294.312
296.206
299.185
304.454
288.555
289.288
289.872
290.285
290.587
290.838
291.065
291.275
291.472
291.655
291.826
291.982
292.122
292.246
292.352
292.442
292.515
292.556
292.558
292.521
292.446
292.34
292.22
292.1
292.001
291.948
291.957
292.045
292.258
292.686
293.504
294.914
296.851
299.74
304.696
288.555
289.288
289.868
290.28
290.579
290.825
291.047
291.251
291.443
291.623
291.792
291.949
292.093
292.224
292.34
292.439
292.521
292.587
292.634
292.645
292.624
292.563
292.47
292.356
292.235
292.132
292.085
292.132
292.343
292.812
293.703
295.187
297.153
300.008
304.804
288.549
289.271
289.843
290.251
290.548
290.793
291.012
291.215
291.404
291.583
291.75
291.907
292.053
292.187
292.309
292.417
292.511
292.588
292.65
292.698
292.719
292.711
292.671
292.601
292.511
292.416
292.344
292.348
292.485
292.907
293.778
295.286
297.305
300.181
304.874
288.548
289.266
289.836
290.247
290.546
290.789
291.004
291.203
291.388
291.562
291.726
291.879
292.022
292.155
292.277
292.388
292.488
292.575
292.649
292.71
292.76
292.788
292.792
292.773
292.729
292.673
292.626
292.636
292.786
293.225
294.145
295.725
297.771
300.582
305.048
288.542
289.25
289.814
290.222
290.52
290.763
290.977
291.173
291.355
291.527
291.688
291.84
291.983
292.116
292.24
292.353
292.457
292.55
292.634
292.706
292.766
292.816
292.852
292.87
292.869
292.857
292.852
292.897
293.105
293.617
294.622
296.253
298.267
300.976
305.22
288.535
289.23
289.788
290.199
290.5
290.742
290.954
291.147
291.327
291.495
291.654
291.804
291.945
292.076
292.199
292.313
292.418
292.515
292.603
292.683
292.755
292.817
292.871
292.916
292.947
292.969
292.99
293.049
293.238
293.731
294.735
296.37
298.39
301.083
305.255
288.53
289.218
289.773
290.186
290.489
290.733
290.946
291.14
291.319
291.487
291.645
291.794
291.933
292.063
292.183
292.295
292.398
292.494
292.582
292.663
292.739
292.808
292.871
292.931
292.99
293.047
293.107
293.192
293.367
293.79
294.746
296.377
298.403
301.099
305.259
288.524
289.201
289.752
290.169
290.477
290.723
290.936
291.129
291.307
291.475
291.632
291.78
291.919
292.048
292.168
292.279
292.382
292.476
292.563
292.644
292.72
292.793
292.862
292.93
293
293.08
293.184
293.335
293.592
294.083
295.015
296.624
298.669
301.354
305.373
288.519
289.189
289.739
290.159
290.469
290.716
290.93
291.123
291.302
291.47
291.627
291.775
291.914
292.043
292.163
292.274
292.375
292.469
292.555
292.636
292.711
292.782
292.852
292.921
292.993
293.076
293.187
293.361
293.662
294.217
295.222
296.861
298.879
301.497
305.418
288.514
289.18
289.733
290.159
290.477
290.729
290.947
291.145
291.328
291.498
291.657
291.806
291.944
292.073
292.191
292.299
292.399
292.49
292.573
292.649
292.719
292.785
292.849
292.915
292.984
293.061
293.163
293.321
293.597
294.134
295.144
296.798
298.851
301.495
305.403
288.512
289.177
289.735
290.173
290.499
290.757
290.978
291.178
291.363
291.536
291.697
291.847
291.987
292.116
292.235
292.345
292.447
292.539
292.624
292.7
292.77
292.834
292.894
292.954
293.017
293.092
293.194
293.344
293.593
294.08
295.058
296.735
298.846
301.507
305.407
288.514
289.189
289.761
290.207
290.537
290.797
291.022
291.226
291.415
291.591
291.755
291.907
292.047
292.177
292.297
292.407
292.509
292.603
292.691
292.772
292.845
292.909
292.966
293.019
293.074
293.145
293.255
293.439
293.757
294.326
295.354
297.067
299.179
301.81
305.544
288.522
289.219
289.813
290.272
290.611
290.879
291.111
291.323
291.52
291.702
291.872
292.029
292.173
292.306
292.428
292.541
292.646
292.745
292.837
292.919
292.991
293.05
293.098
293.138
293.177
293.232
293.329
293.516
293.9
294.649
295.891
297.688
299.684
302.12
305.678
288.54
289.271
289.889
290.358
290.7
290.972
291.21
291.428
291.631
291.82
291.996
292.159
292.311
292.451
292.583
292.709
292.832
292.949
293.056
293.149
293.221
293.273
293.307
293.328
293.344
293.369
293.424
293.565
293.926
294.716
296.041
297.88
299.839
302.214
305.711
288.562
289.334
289.975
290.447
290.79
291.066
291.311
291.536
291.746
291.942
292.125
292.296
292.455
292.607
292.756
292.905
293.059
293.21
293.34
293.437
293.5
293.535
293.548
293.549
293.545
293.547
293.57
293.663
293.942
294.577
295.824
297.656
299.641
302.069
305.661
288.588
289.4
290.054
290.523
290.863
291.142
291.391
291.622
291.838
292.04
292.229
292.407
292.576
292.742
292.912
293.095
293.301
293.51
293.667
293.746
293.777
293.78
293.771
293.757
293.745
293.741
293.757
293.821
294.013
294.564
295.626
297.367
299.404
301.931
305.614
288.61
289.44
290.089
290.548
290.883
291.16
291.409
291.64
291.856
292.059
292.248
292.426
292.596
292.765
292.941
293.137
293.361
293.6
293.813
293.944
293.984
293.989
293.979
293.965
293.952
293.947
293.959
294.007
294.153
294.57
295.603
297.316
299.361
301.898
305.587
288.614
289.443
290.091
290.549
290.884
291.16
291.41
291.641
291.857
292.059
292.248
292.426
292.596
292.762
292.935
293.125
293.343
293.584
293.815
293.998
294.108
294.158
294.176
294.181
294.183
294.194
294.224
294.288
294.423
294.744
295.595
297.298
299.346
301.88
305.582
288.614
289.442
290.088
290.544
290.878
291.155
291.404
291.635
291.851
292.051
292.236
292.406
292.563
292.713
292.862
293.023
293.211
293.445
293.721
293.993
294.201
294.321
294.384
294.415
294.436
294.463
294.518
294.628
294.842
295.269
296.138
297.735
299.659
302.049
305.662
288.611
289.432
290.071
290.524
290.857
291.133
291.383
291.614
291.829
292.029
292.215
292.388
292.549
292.701
292.85
293.006
293.183
293.4
293.67
293.975
294.25
294.444
294.551
294.609
294.651
294.704
294.795
294.964
295.274
295.85
296.869
298.428
300.167
302.363
305.782
288.604
289.414
290.05
290.505
290.839
291.115
291.364
291.594
291.809
292.009
292.197
292.371
292.532
292.684
292.829
292.972
293.122
293.295
293.52
293.825
294.172
294.489
294.7
294.806
294.859
294.91
295.003
295.191
295.553
296.202
297.271
298.773
300.402
302.498
305.821
288.596
289.396
290.033
290.494
290.832
291.111
291.359
291.588
291.802
292.003
292.19
292.364
292.526
292.677
292.82
292.959
293.099
293.248
293.417
293.62
293.924
294.312
294.68
294.94
295.07
295.134
295.204
295.355
295.693
296.354
297.449
298.915
300.496
302.55
305.829
288.589
289.383
290.022
290.486
290.828
291.11
291.365
291.602
291.823
292.03
292.222
292.4
292.565
292.719
292.864
293.004
293.141
293.28
293.427
293.604
293.84
294.175
294.606
295.015
295.301
295.448
295.533
295.652
295.933
296.543
297.606
299.014
300.551
302.601
305.855
288.59
289.392
290.04
290.512
290.859
291.148
291.409
291.65
291.876
292.087
292.284
292.468
292.642
292.808
292.969
293.128
293.281
293.422
293.552
293.691
293.873
294.149
294.551
295.034
295.488
295.811
296.018
296.196
296.469
297.003
297.929
299.163
300.596
302.625
305.863
288.603
289.426
290.081
290.55
290.897
291.186
291.448
291.693
291.923
292.14
292.343
292.536
292.723
292.906
293.093
293.284
293.474
293.646
293.788
293.913
294.058
294.274
294.609
295.077
295.609
296.094
296.483
296.821
297.204
297.757
298.576
299.62
300.892
302.813
305.933
288.617
289.454
290.105
290.567
290.91
291.2
291.463
291.711
291.944
292.166
292.377
292.58
292.78
292.982
293.197
293.429
293.668
293.879
294.031
294.154
294.286
294.471
294.759
295.189
295.731
296.291
296.817
297.319
297.854
298.493
299.28
300.199
301.344
303.147
306.064
288.621
289.457
290.107
290.569
290.911
291.2
291.464
291.712
291.945
292.168
292.38
292.584
292.787
292.995
293.218
293.462
293.721
293.972
294.183
294.325
294.441
294.588
294.819
295.194
295.723
296.322
296.928
297.543
298.197
298.925
299.736
300.616
301.706
303.433
306.169
288.624
289.459
290.101
290.557
290.897
291.184
291.445
291.69
291.921
292.14
292.348
292.549
292.747
292.95
293.166
293.407
293.673
293.948
294.193
294.383
294.521
294.642
294.803
295.074
295.511
296.115
296.809
297.527
298.24
299.021
299.863
300.753
301.833
303.524
306.189
288.613
289.422
290.048
290.498
290.834
291.115
291.371
291.609
291.833
292.046
292.247
292.438
292.624
292.811
293.005
293.217
293.462
293.746
294.052
294.332
294.543
294.689
294.813
294.975
295.238
295.677
296.308
297.086
297.965
298.878
299.81
300.742
301.83
303.516
306.18
288.598
289.384
290
290.449
290.782
291.06
291.311
291.544
291.764
291.972
292.167
292.352
292.528
292.698
292.867
293.046
293.248
293.486
293.772
294.097
294.418
294.677
294.852
294.983
295.137
295.375
295.771
296.382
297.2
298.17
299.228
300.314
301.512
303.246
306.058
288.575
289.332
289.944
290.4
290.738
291.016
291.264
291.495
291.711
291.916
292.109
292.291
292.465
292.631
292.792
292.953
293.119
293.301
293.519
293.797
294.133
294.49
294.801
295.02
295.177
295.328
295.557
295.931
296.538
297.421
298.547
299.778
301.071
302.869
305.898
288.557
289.291
289.898
290.361
290.708
290.99
291.241
291.473
291.691
291.897
292.093
292.279
292.456
292.625
292.789
292.95
293.112
293.278
293.457
293.657
293.913
294.246
294.63
294.976
295.228
295.405
295.572
295.843
296.317
297.086
298.202
299.504
300.844
302.666
305.813
288.549
289.281
289.893
290.36
290.711
290.998
291.255
291.494
291.719
291.932
292.134
292.327
292.51
292.686
292.853
293.01
293.159
293.309
293.467
293.647
293.866
294.146
294.504
294.901
295.258
295.522
295.719
295.93
296.317
297.062
298.166
299.478
300.816
302.627
305.798
288.549
289.291
289.922
290.406
290.768
291.065
291.333
291.582
291.817
292.041
292.255
292.461
292.659
292.849
293.024
293.181
293.321
293.452
293.583
293.728
293.906
294.144
294.462
294.852
295.278
295.647
295.929
296.188
296.552
297.193
298.251
299.54
300.856
302.649
305.806
288.564
289.343
289.998
290.491
290.858
291.163
291.439
291.7
291.948
292.188
292.421
292.652
292.88
293.096
293.291
293.456
293.594
293.716
293.833
293.962
294.117
294.32
294.587
294.928
295.339
295.748
296.087
296.391
296.777
297.422
298.439
299.653
300.921
302.699
305.835
288.592
289.416
290.094
290.591
290.962
291.275
291.564
291.84
292.106
292.367
292.629
292.897
293.166
293.413
293.616
293.774
293.901
294.015
294.129
294.256
294.407
294.597
294.838
295.15
295.539
295.957
296.334
296.677
297.079
297.695
298.629
299.754
300.981
302.751
305.871
288.624
289.493
290.19
290.689
291.063
291.384
291.685
291.975
292.259
292.544
292.842
293.161
293.483
293.747
293.934
294.066
294.174
294.278
294.393
294.528
294.69
294.888
295.137
295.456
295.851
296.286
296.701
297.082
297.497
298.068
298.89
299.889
301.05
302.816
305.912
288.654
289.554
290.25
290.735
291.101
291.422
291.724
292.016
292.303
292.595
292.906
293.245
293.599
293.924
294.136
294.27
294.377
294.485
294.606
294.75
294.921
295.127
295.382
295.7
296.087
296.529
296.983
297.422
297.879
298.438
299.172
300.054
301.142
302.882
305.937
288.655
289.557
290.253
290.736
291.102
291.423
291.725
292.016
292.3
292.587
292.893
293.231
293.592
293.935
294.195
294.37
294.5
294.621
294.754
294.912
295.102
295.333
295.616
295.962
296.368
296.825
297.308
297.793
298.294
298.859
299.532
300.316
301.326
303.025
305.985
288.655
289.557
290.253
290.734
291.097
291.414
291.709
291.989
292.261
292.537
292.835
293.18
293.583
293.973
294.266
294.461
294.601
294.724
294.855
295.012
295.209
295.464
295.787
296.179
296.637
297.148
297.684
298.224
298.768
299.341
299.973
300.685
301.624
303.246
306.064
288.661
289.57
290.262
290.738
291.097
291.411
291.703
291.981
292.253
292.529
292.828
293.178
293.598
294.039
294.419
294.641
294.774
294.881
294.995
295.135
295.325
295.582
295.915
296.332
296.826
297.383
297.974
298.571
299.16
299.755
300.373
301.051
301.95
303.508
306.162
288.666
289.576
290.266
290.738
291.094
291.405
291.694
291.966
292.228
292.49
292.771
293.1
293.506
293.984
294.444
294.778
294.956
295.068
295.172
295.298
295.471
295.707
296.02
296.42
296.909
297.474
298.092
298.729
299.363
299.99
300.623
301.297
302.182
303.701
306.236
288.666
289.574
290.255
290.717
291.065
291.367
291.645
291.904
292.149
292.388
292.637
292.922
293.283
293.754
294.305
294.79
295.103
295.264
295.378
295.5
295.659
295.877
296.169
296.547
297.014
297.565
298.182
298.834
299.492
300.142
300.79
301.471
302.354
303.849
306.296
288.662
289.561
290.234
290.693
291.04
291.34
291.615
291.87
292.108
292.334
292.56
292.808
293.114
293.528
294.076
294.675
295.144
295.422
295.578
295.708
295.86
296.063
296.341
296.709
297.168
297.711
298.318
298.966
299.627
300.284
300.937
301.622
302.504
303.976
306.346
288.659
289.551
290.218
290.674
291.017
291.315
291.586
291.836
292.068
292.284
292.492
292.707
292.958
293.292
293.771
294.403
295.039
295.482
295.74
295.91
296.06
296.239
296.486
296.829
297.271
297.802
298.401
299.047
299.709
300.369
301.026
301.716
302.602
304.064
306.382
288.653
289.532
290.19
290.641
290.981
291.274
291.542
291.791
292.021
292.235
292.434
292.629
292.836
293.093
293.464
294.026
294.747
295.398
295.813
296.066
296.247
296.42
296.637
296.938
297.341
297.845
298.429
299.066
299.726
300.389
301.052
301.748
302.639
304.097
306.394
288.649
289.518
290.167
290.613
290.949
291.239
291.502
291.746
291.972
292.18
292.372
292.552
292.733
292.936
293.21
293.637
294.298
295.096
295.749
296.161
296.415
296.605
296.804
297.065
297.426
297.899
298.463
299.083
299.737
300.4
301.066
301.765
302.659
304.114
306.399
288.642
289.498
290.141
290.585
290.918
291.202
291.462
291.702
291.925
292.13
292.319
292.491
292.652
292.815
293.004
293.271
293.717
294.435
295.3
296.02
296.484
296.773
296.982
297.206
297.51
297.931
298.475
299.1
299.756
300.42
301.085
301.783
302.673
304.12
306.399
288.634
289.477
290.116
290.561
290.895
291.178
291.436
291.675
291.897
292.102
292.292
292.466
292.626
292.774
292.922
293.091
293.337
293.786
294.568
295.538
296.343
296.857
297.202
297.456
297.719
298.062
298.525
299.117
299.769
300.432
301.095
301.79
302.68
304.126
306.403
288.627
289.456
290.088
290.534
290.866
291.147
291.4
291.635
291.852
292.053
292.237
292.406
292.562
292.708
292.847
292.99
293.156
293.406
293.882
294.753
295.834
296.72
297.296
297.727
298.09
298.457
298.892
299.405
299.99
300.606
301.231
301.899
302.775
304.21
306.436
288.617
289.432
290.062
290.512
290.848
291.129
291.383
291.619
291.838
292.039
292.225
292.394
292.55
292.694
292.831
292.962
293.094
293.244
293.466
293.913
294.784
295.937
297.027
297.721
298.213
298.671
299.151
299.674
300.233
300.809
301.398
302.038
302.874
304.246
306.437
288.609
289.412
290.04
290.493
290.829
291.109
291.36
291.592
291.807
292.006
292.188
292.356
292.51
292.652
292.786
292.915
293.043
293.173
293.315
293.503
293.859
294.608
295.786
297.069
298.033
298.648
299.156
299.687
300.243
300.82
301.416
302.053
302.875
304.229
306.419
288.595
289.379
290.004
290.465
290.807
291.09
291.342
291.575
291.79
291.988
292.17
292.336
292.489
292.63
292.763
292.89
293.015
293.141
293.273
293.415
293.586
293.879
294.51
295.616
296.945
298.159
299.059
299.659
300.227
300.805
301.399
302.03
302.826
304.145
306.365
288.583
289.353
289.978
290.445
290.792
291.077
291.331
291.564
291.78
291.978
292.16
292.326
292.479
292.62
292.752
292.879
293.004
293.129
293.26
293.4
293.552
293.721
293.953
294.428
295.367
296.558
297.83
299.035
299.976
300.724
301.366
302.007
302.799
304.085
306.32
288.569
289.325
289.95
290.422
290.773
291.061
291.317
291.552
291.769
291.968
292.151
292.319
292.472
292.613
292.746
292.874
292.999
293.125
293.257
293.398
293.547
293.702
293.868
294.077
294.408
295.015
295.995
297.271
298.606
299.807
300.806
301.648
302.519
303.84
306.215
288.56
289.308
289.934
290.407
290.759
291.049
291.306
291.541
291.759
291.96
292.144
292.313
292.468
292.613
292.749
292.879
293.007
293.138
293.276
293.427
293.589
293.755
293.915
294.068
294.235
294.477
294.919
295.729
296.924
298.328
299.678
300.83
301.889
303.336
305.992
288.554
289.299
289.924
290.399
290.753
291.043
291.302
291.541
291.765
291.968
292.159
292.332
292.489
292.635
292.773
292.908
293.044
293.186
293.34
293.511
293.699
293.891
294.072
294.236
294.381
294.525
294.732
295.116
295.849
297.046
298.562
300.081
301.394
302.996
305.874
288.553
289.301
289.924
290.397
290.751
291.042
291.301
291.542
291.764
291.97
292.16
292.338
292.501
292.653
292.797
292.94
293.087
293.246
293.427
293.634
293.863
294.096
294.314
294.51
294.677
294.817
294.946
295.161
295.675
296.687
298.246
299.963
301.375
302.994
305.888
288.554
289.303
289.922
290.391
290.745
291.039
291.301
291.541
291.761
291.967
292.161
292.338
292.504
292.663
292.815
292.968
293.128
293.309
293.526
293.785
294.071
294.349
294.599
294.812
294.997
295.168
295.347
295.579
295.994
296.945
298.507
300.184
301.555
303.166
305.983
288.556
289.308
289.925
290.392
290.744
291.038
291.3
291.54
291.764
291.971
292.161
292.339
292.507
292.665
292.82
292.98
293.158
293.371
293.633
293.962
294.321
294.65
294.918
295.133
295.319
295.5
295.704
295.982
296.473
297.429
298.92
300.445
301.733
303.323
306.07
288.559
289.308
289.928
290.393
290.745
291.035
291.296
291.536
291.759
291.966
292.159
292.337
292.506
292.664
292.82
292.98
293.161
293.386
293.703
294.123
294.574
294.972
295.274
295.506
295.702
295.888
296.097
296.396
296.926
297.896
299.309
300.675
301.894
303.488
306.157
288.562
289.312
289.925
290.38
290.72
291.007
291.264
291.503
291.725
291.934
292.129
292.312
292.482
292.644
292.803
292.967
293.153
293.388
293.711
294.158
294.704
295.204
295.577
295.861
296.086
296.29
296.518
296.849
297.422
298.396
299.693
300.886
302.039
303.652
306.239
288.558
289.299
289.902
290.354
290.697
290.983
291.241
291.479
291.701
291.908
292.103
292.285
292.455
292.616
292.773
292.932
293.107
293.327
293.647
294.115
294.72
295.334
295.842
296.225
296.52
296.778
297.056
297.441
298.057
298.991
300.106
301.127
302.219
303.841
306.322
288.555
289.288
289.887
290.338
290.68
290.965
291.221
291.459
291.683
291.892
292.089
292.273
292.446
292.611
292.771
292.931
293.1
293.291
293.538
293.94
294.548
295.284
295.948
296.475
296.884
297.231
297.585
298.029
298.657
299.502
300.431
301.313
302.341
303.937
306.355
288.551
289.279
289.879
290.331
290.673
290.958
291.214
291.452
291.676
291.886
292.083
292.27
292.445
292.613
292.776
292.938
293.105
293.291
293.513
293.808
294.304
295.023
295.823
296.517
297.084
297.556
298.01
298.519
299.152
299.913
300.706
301.488
302.448
303.986
306.357
288.55
289.279
289.88
290.335
290.679
290.966
291.224
291.464
291.69
291.902
292.103
292.292
292.472
292.646
292.817
292.987
293.157
293.331
293.528
293.791
294.173
294.796
295.608
296.431
297.133
297.74
298.305
298.896
299.555
300.269
300.984
301.709
302.623
304.104
306.397
288.552
289.286
289.894
290.354
290.701
290.99
291.251
291.494
291.723
291.94
292.145
292.34
292.529
292.716
292.906
293.098
293.287
293.465
293.641
293.851
294.171
294.674
295.444
296.328
297.133
297.81
298.447
299.091
299.767
300.462
301.149
301.854
302.748
304.192
306.428
288.561
289.308
289.923
290.387
290.736
291.027
291.29
291.536
291.768
291.989
292.199
292.401
292.601
292.805
293.02
293.246
293.467
293.654
293.819
293.979
294.189
294.536
295.11
295.915
296.837
297.707
298.441
299.112
299.796
300.489
301.178
301.883
302.768
304.195
306.424
288.566
289.318
289.933
290.395
290.743
291.034
291.297
291.544
291.779
292.001
292.215
292.422
292.628
292.843
293.075
293.33
293.594
293.842
294.025
294.163
294.303
294.498
294.825
295.38
296.169
297.089
298.036
298.922
299.732
300.468
301.168
301.875
302.758
304.184
306.417
288.567
289.316
289.928
290.391
290.741
291.031
291.295
291.541
291.774
291.996
292.207
292.412
292.615
292.826
293.055
293.308
293.581
293.85
294.086
294.273
294.411
294.538
294.696
294.952
295.396
296.085
296.975
297.964
298.957
299.906
300.767
301.566
302.487
303.933
306.307
288.556
289.289
289.895
290.359
290.71
291.002
291.265
291.509
291.739
291.956
292.161
292.358
292.548
292.742
292.95
293.185
293.452
293.741
294.028
294.277
294.476
294.625
294.75
294.89
295.092
295.422
295.961
296.747
297.728
298.805
299.872
300.873
301.922
303.448
306.087
288.536
289.241
289.837
290.303
290.659
290.953
291.217
291.462
291.691
291.907
292.111
292.307
292.499
292.691
292.886
293.093
293.325
293.597
293.901
294.21
294.484
294.702
294.877
295.026
295.169
295.361
295.67
296.186
296.988
298.078
299.325
300.519
301.671
303.254
306.022
288.521
289.206
289.795
290.263
290.622
290.919
291.187
291.437
291.668
291.888
292.099
292.301
292.498
292.691
292.886
293.09
293.315
293.575
293.877
294.214
294.533
294.809
295.042
295.248
295.437
295.618
295.835
296.202
296.928
298.018
299.315
300.521
301.676
303.286
306.042
288.517
289.2
289.792
290.256
290.613
290.911
291.182
291.437
291.685
291.923
292.149
292.365
292.573
292.774
292.969
293.165
293.376
293.619
293.91
294.253
294.614
294.941
295.227
295.492
295.758
296.05
296.394
296.852
297.524
298.567
299.802
300.891
301.987
303.592
306.183
288.513
289.194
289.793
290.272
290.641
290.952
291.237
291.504
291.758
292.001
292.238
292.472
292.7
292.915
293.111
293.293
293.476
293.682
293.936
294.256
294.626
294.991
295.327
295.642
295.967
296.344
296.812
297.412
298.193
299.176
300.228
301.18
302.21
303.776
306.264
288.523
289.24
289.869
290.359
290.733
291.048
291.338
291.616
291.888
292.16
292.437
292.719
292.991
293.23
293.431
293.605
293.769
293.942
294.146
294.395
294.691
295.027
295.369
295.699
296.044
296.452
296.969
297.627
298.447
299.404
300.382
301.282
302.281
303.82
306.278
288.547
289.306
289.955
290.448
290.828
291.158
291.471
291.776
292.082
292.399
292.737
293.092
293.416
293.667
293.852
294.011
294.168
294.337
294.525
294.742
294.994
295.268
295.55
295.829
296.127
296.494
296.997
297.668
298.51
299.472
300.435
301.31
302.302
303.85
306.294
288.583
289.388
290.049
290.536
290.913
291.251
291.576
291.9
292.236
292.602
293.018
293.461
293.842
294.099
294.264
294.423
294.596
294.787
294.994
295.224
295.483
295.749
295.996
296.226
296.465
296.766
297.201
297.838
298.666
299.585
300.47
301.325
302.332
303.912
306.339
288.602
289.417
290.074
290.554
290.928
291.265
291.591
291.917
292.253
292.619
293.038
293.497
293.919
294.243
294.494
294.7
294.921
295.166
295.438
295.742
296.054
296.353
296.639
296.909
297.174
297.48
297.897
298.479
299.207
300
300.779
301.556
302.545
304.118
306.437
288.603
289.416
290.067
290.538
290.904
291.231
291.538
291.836
292.139
292.47
292.86
293.33
293.827
294.239
294.532
294.777
295.029
295.326
295.684
296.079
296.467
296.832
297.182
297.529
297.889
298.285
298.749
299.3
299.924
300.573
301.223
301.913
302.831
304.331
306.514
288.59
289.379
290.008
290.469
290.826
291.142
291.447
291.749
292.053
292.379
292.76
293.232
293.776
294.247
294.564
294.804
295.043
295.335
295.712
296.146
296.582
297.007
297.429
297.859
298.3
298.764
299.268
299.818
300.397
300.978
301.562
302.197
303.059
304.489
306.564
288.59
289.377
289.999
290.454
290.812
291.136
291.444
291.745
292.047
292.371
292.75
293.221
293.772
294.293
294.641
294.86
295.055
295.302
295.639
296.056
296.515
296.986
297.461
297.944
298.438
298.948
299.48
300.032
300.591
301.148
301.714
302.337
303.183
304.566
306.587
288.592
289.372
289.988
290.436
290.786
291.097
291.389
291.668
291.945
292.237
292.574
293.001
293.539
294.128
294.612
294.896
295.077
295.262
295.512
295.858
296.301
296.819
297.375
297.927
298.448
298.976
299.518
300.07
300.626
301.18
301.744
302.363
303.201
304.571
306.584
288.569
289.31
289.901
290.339
290.682
290.983
291.263
291.528
291.781
292.033
292.301
292.624
293.057
293.632
294.266
294.769
295.061
295.24
295.41
295.624
295.935
296.369
296.923
297.556
298.219
298.864
299.481
300.057
300.619
301.176
301.741
302.359
303.196
304.564
306.577
288.544
289.25
289.824
290.256
290.596
290.894
291.169
291.428
291.671
291.903
292.134
292.382
292.687
293.112
293.695
294.353
294.898
295.239
295.424
295.566
295.732
295.966
296.313
296.795
297.393
298.057
298.753
299.468
300.166
300.832
301.48
302.164
303.041
304.428
306.506
288.524
289.201
289.758
290.182
290.517
290.808
291.077
291.329
291.566
291.79
292.005
292.22
292.463
292.78
293.243
293.883
294.589
295.171
295.516
295.687
295.791
295.914
296.091
296.353
296.733
297.248
297.875
298.585
299.331
300.087
300.859
301.661
302.623
304.096
306.37
288.509
289.162
289.703
290.121
290.452
290.74
291.006
291.257
291.495
291.721
291.937
292.145
292.358
292.612
292.974
293.513
294.235
294.972
295.547
295.905
296.067
296.129
296.179
296.311
296.56
296.95
297.495
298.178
298.962
299.8
300.641
301.472
302.454
303.967
306.325
288.5
289.138
289.669
290.08
290.404
290.685
290.945
291.189
291.423
291.647
291.863
292.075
292.284
292.498
292.747
293.127
293.739
294.579
295.413
296.017
296.363
296.501
296.522
296.507
296.593
296.943
297.476
298.164
298.959
299.8
300.64
301.469
302.454
303.974
306.332
288.498
289.131
289.659
290.067
290.39
290.671
290.932
291.181
291.417
291.642
291.858
292.07
292.279
292.491
292.716
292.989
293.433
294.215
295.226
296.116
296.716
297.066
297.203
297.244
297.301
297.485
297.931
298.593
299.367
300.161
300.933
301.716
302.692
304.216
306.452
288.495
289.124
289.648
290.053
290.37
290.644
290.899
291.142
291.377
291.605
291.827
292.046
292.265
292.487
292.715
292.955
293.227
293.654
294.535
295.711
296.741
297.359
297.766
298.055
298.311
298.633
299.086
299.661
300.296
300.933
301.568
302.244
303.126
304.524
306.563
288.493
289.123
289.649
290.054
290.37
290.644
290.898
291.142
291.377
291.605
291.828
292.048
292.269
292.499
292.735
292.971
293.217
293.507
293.927
294.794
295.984
297.091
297.801
298.29
298.72
299.167
299.652
300.175
300.722
301.283
301.862
302.492
303.311
304.613
306.584
288.495
289.125
289.651
290.056
290.373
290.647
290.903
291.148
291.387
291.62
291.852
292.087
292.336
292.606
292.888
293.148
293.358
293.555
293.823
294.254
295.048
296.096
297.188
298.088
298.719
299.216
299.72
300.239
300.772
301.321
301.897
302.524
303.329
304.614
306.582
288.505
289.148
289.679
290.083
290.396
290.669
290.925
291.172
291.411
291.645
291.88
292.122
292.383
292.674
292.987
293.285
293.528
293.699
293.847
294.052
294.409
295.041
295.898
296.86
297.848
298.744
299.504
300.162
300.742
301.301
301.864
302.46
303.229
304.486
306.511
288.515
289.174
289.71
290.109
290.415
290.682
290.932
291.174
291.409
291.641
291.874
292.113
292.372
292.658
292.967
293.278
293.548
293.753
293.905
294.03
294.179
294.426
294.868
295.544
296.393
297.339
298.301
299.223
300.077
300.835
301.524
302.202
303.01
304.285
306.419
288.516
289.177
289.716
290.115
290.418
290.681
290.931
291.167
291.393
291.609
291.821
292.04
292.274
292.531
292.821
293.136
293.447
293.717
293.922
294.072
294.195
294.328
294.528
294.881
295.462
296.27
297.246
298.313
299.394
300.416
301.329
302.138
302.975
304.247
306.402
288.516
289.19
289.745
290.15
290.453
290.711
290.951
291.18
291.398
291.61
291.818
292.029
292.255
292.507
292.79
293.092
293.39
293.663
293.899
294.09
294.24
294.365
294.497
294.688
295.016
295.58
296.406
297.448
298.616
299.801
300.902
301.893
302.911
304.234
306.397
288.531
289.237
289.816
290.233
290.541
290.804
291.047
291.273
291.485
291.687
291.888
292.098
292.332
292.606
292.924
293.26
293.568
293.824
294.035
294.211
294.358
294.479
294.586
294.706
294.887
295.177
295.668
296.419
297.409
298.553
299.733
300.867
302.045
303.686
306.24
288.555
289.303
289.904
290.326
290.638
290.905
291.15
291.377
291.586
291.785
291.984
292.195
292.436
292.727
293.074
293.448
293.791
294.068
294.287
294.464
294.604
294.713
294.803
294.887
294.98
295.131
295.38
295.775
296.396
297.289
298.418
299.661
300.937
302.712
305.854
288.569
289.351
289.979
290.414
290.733
291.003
291.245
291.463
291.662
291.849
292.038
292.242
292.484
292.787
293.16
293.566
293.939