/*--------------------------------*- C++ -*----------------------------------*\
| =========                 |                                                 |
| \\      /  F ield         | OpenFOAM: The Open Source CFD Toolbox           |
|  \\    /   O peration     | Version:  2.0.x                                 |
|   \\  /    A nd           | Web:      www.OpenFOAM.org                      |
|    \\/     M anipulation  |                                                 |
\*---------------------------------------------------------------------------*/
FoamFile
{
    version     2.0;
    format      ascii;
    class       volVectorField;
    location    "300";
    object      U;
}
// * * * * * * * * * * * * * * * * * * * * * * * * * * * * * * * * * * * * * //

dimensions      [0 1 -1 0 0 0 0];

internalField   nonuniform List<vector> 
78750
(
(-0.00160288 0.00948023 0.00927748)
(-0.00521316 0.0124779 0.0159799)
(-0.00861865 0.0075914 0.0181534)
(-0.0101849 -0.00128211 0.019003)
(-0.00925824 -0.0112636 0.0193585)
(-0.00607186 -0.0203501 0.0194358)
(-0.00101194 -0.0279287 0.0194106)
(0.00565988 -0.0341189 0.0192977)
(0.0135155 -0.038422 0.0191987)
(0.0218466 -0.0409777 0.0191244)
(0.0305683 -0.0411997 0.0191388)
(0.0390291 -0.0423862 0.0188667)
(0.0482466 -0.045849 0.018199)
(0.0561433 -0.0456096 0.0178696)
(0.0635786 -0.0435213 0.0175398)
(0.0701273 -0.0399918 0.0176274)
(0.0756486 -0.0361944 0.0176709)
(0.0803298 -0.0312026 0.0176851)
(0.0836652 -0.0277304 0.0175908)
(0.0865084 -0.0205719 0.0177257)
(0.0876431 -0.01513 0.0177024)
(0.0880302 -0.0117497 0.0175155)
(0.0873716 -0.00746941 0.0173554)
(0.0857817 -0.00333543 0.0171614)
(0.0830316 0.00108541 0.0169635)
(0.0791978 0.00550382 0.0167182)
(0.0741335 0.0107268 0.0165922)
(0.0684517 0.0148032 0.0162803)
(0.0617714 0.0185563 0.0159985)
(0.0542622 0.0220612 0.0157717)
(0.045847 0.0252723 0.015611)
(0.0367056 0.0281315 0.0155777)
(0.0265787 0.0306425 0.0156281)
(0.0161742 0.0343374 0.0147872)
(0.00480072 0.0317414 0.00852952)
(8.71353e-05 0.0094365 0.00669027)
(0.00158931 0.00840351 0.0123544)
(0.00564923 -0.00717675 0.0139582)
(0.011305 -0.027154 0.014162)
(0.0187372 -0.0485507 0.0144381)
(0.026404 -0.0667283 0.0142201)
(0.0345842 -0.0818621 0.0138244)
(0.0419004 -0.0946437 0.0133205)
(0.0492807 -0.101756 0.0130797)
(0.0547126 -0.10507 0.0129123)
(0.0618423 -0.103902 0.0130038)
(0.0653452 -0.101595 0.0130907)
(0.0698156 -0.0943657 0.0134402)
(0.0730611 -0.0848082 0.0138371)
(0.0754549 -0.0753691 0.0141234)
(0.0773811 -0.0660401 0.0143284)
(0.0787182 -0.05675 0.0144797)
(0.0795749 -0.0473437 0.0146285)
(0.0797712 -0.0382889 0.0146174)
(0.0794915 -0.0290657 0.0145868)
(0.0788216 -0.0196634 0.0145346)
(0.0776247 -0.010162 0.0144984)
(0.0754389 -0.000415206 0.0144318)
(0.0729538 0.00849602 0.014331)
(0.0692791 0.0214916 0.0143891)
(0.0659779 0.0303959 0.0143443)
(0.0609844 0.0393764 0.014196)
(0.0564117 0.0458793 0.013977)
(0.0503131 0.0536658 0.0138838)
(0.0435843 0.0619652 0.0139529)
(0.0363461 0.0693524 0.0140993)
(0.028385 0.076098 0.0142835)
(0.0197109 0.0835488 0.0142594)
(0.0104559 0.0930491 0.0128939)
(0.00281739 0.0843643 0.00817701)
(0.00011351 -0.00739825 0.00464654)
(0.00394556 -0.0384225 0.00841668)
(0.010759 -0.0752345 0.00938565)
(0.0187419 -0.106946 0.00956388)
(0.0264807 -0.129349 0.0095474)
(0.0325229 -0.142802 0.00959224)
(0.0382596 -0.145905 0.0100345)
(0.0412148 -0.144035 0.0103976)
(0.0444443 -0.139174 0.0108885)
(0.0461972 -0.132733 0.0113275)
(0.0477104 -0.124435 0.0117787)
(0.0482694 -0.115131 0.0119832)
(0.0482512 -0.106823 0.0119983)
(0.0482882 -0.0977717 0.0119218)
(0.0485932 -0.0880368 0.0118789)
(0.0481416 -0.0775459 0.0117816)
(0.0473918 -0.0663944 0.0116223)
(0.0464672 -0.054782 0.0114325)
(0.0452799 -0.0428439 0.0112285)
(0.0439387 -0.0309483 0.0109779)
(0.0425036 -0.0193328 0.0107299)
(0.0411772 -0.0068897 0.0107255)
(0.0392219 0.00978863 0.0109028)
(0.0378647 0.018495 0.0108799)
(0.0360701 0.0308081 0.0109248)
(0.0342095 0.0438331 0.011186)
(0.0324803 0.0572079 0.0114303)
(0.0288868 0.070863 0.0113661)
(0.0265082 0.0837906 0.011518)
(0.0226293 0.0959951 0.0116045)
(0.0185372 0.10718 0.0118962)
(0.0140133 0.117829 0.0121991)
(0.00889922 0.128461 0.0121054)
(0.00372397 0.13481 0.0104947)
(0.000136847 0.107421 0.00538273)
(0.000479952 -0.0234572 0.00363054)
(0.00446304 -0.079022 0.00634748)
(0.00949076 -0.122297 0.00752063)
(0.0138093 -0.1457 0.00832845)
(0.0166373 -0.154114 0.00889921)
(0.0186073 -0.155047 0.00931)
(0.0196972 -0.153758 0.00945051)
(0.0208549 -0.150796 0.0094325)
(0.0216337 -0.146302 0.00928247)
(0.0225212 -0.140085 0.00911927)
(0.022546 -0.132148 0.00911958)
(0.0238143 -0.121766 0.00969328)
(0.0236387 -0.110297 0.0101924)
(0.0238148 -0.0983842 0.0104845)
(0.0221453 -0.0853564 0.0102784)
(0.0214465 -0.0715572 0.00986875)
(0.0201432 -0.05784 0.00935182)
(0.0188737 -0.0447802 0.00883872)
(0.0173853 -0.0326611 0.00832265)
(0.016086 -0.0213008 0.00784585)
(0.0149253 -0.00993655 0.00739509)
(0.013796 0.00203124 0.00707126)
(0.0133642 0.0104354 0.00697785)
(0.0131162 0.021258 0.00709205)
(0.0127414 0.0337859 0.00749573)
(0.0123101 0.0475901 0.00809092)
(0.0112214 0.0618398 0.00869423)
(0.011386 0.0753235 0.00929564)
(0.00927028 0.0889141 0.00930571)
(0.00835731 0.102288 0.00960591)
(0.0070121 0.115144 0.0101802)
(0.00497451 0.128197 0.0104003)
(0.00276212 0.139899 0.0100176)
(0.000510444 0.143756 0.00827084)
(-0.000440938 0.105199 0.00414171)
(0.000570396 -0.0401917 0.00243648)
(0.0032385 -0.106904 0.00486765)
(0.00565194 -0.145621 0.00618582)
(0.00734972 -0.163301 0.00685086)
(0.00852998 -0.17067 0.00727195)
(0.0095923 -0.172894 0.0076431)
(0.0104579 -0.171756 0.00799261)
(0.0112745 -0.167278 0.00849696)
(0.0118094 -0.160456 0.00902448)
(0.0120728 -0.151725 0.00946518)
(0.0121307 -0.141302 0.00972956)
(0.012112 -0.129363 0.00981131)
(0.0116623 -0.116032 0.00976852)
(0.0111427 -0.101278 0.0096847)
(0.0110917 -0.0865085 0.00961372)
(0.0103277 -0.0721551 0.00928312)
(0.00972022 -0.0582531 0.00865082)
(0.00882999 -0.0451219 0.00765865)
(0.00830409 -0.0334162 0.00657431)
(0.0077184 -0.0230299 0.00555988)
(0.00727865 -0.0134043 0.00472276)
(0.00707476 -0.00372351 0.00416271)
(0.00697388 0.00468874 0.00397235)
(0.00685692 0.0149403 0.00412883)
(0.00671785 0.0278513 0.00469781)
(0.00656401 0.0422413 0.00553643)
(0.00631213 0.0574224 0.00644108)
(0.005937 0.0727682 0.00726096)
(0.0055755 0.087902 0.00793045)
(0.00490359 0.102355 0.0082107)
(0.00394855 0.117348 0.00859774)
(0.00269238 0.132813 0.0087459)
(0.00128915 0.144901 0.0082736)
(-5.39397e-05 0.146287 0.00663007)
(-0.000413529 0.100195 0.00295108)
(0.000363464 -0.0500505 0.00246583)
(0.00152658 -0.120289 0.00520116)
(0.00247248 -0.157146 0.00663766)
(0.00318949 -0.17205 0.00735803)
(0.00366528 -0.176721 0.00776264)
(0.00394695 -0.176696 0.00803671)
(0.00410203 -0.173954 0.00827271)
(0.00416072 -0.168921 0.00848487)
(0.00419506 -0.161891 0.00871837)
(0.00420596 -0.152973 0.00903508)
(0.0042012 -0.142318 0.00945838)
(0.00416882 -0.130192 0.00993555)
(0.00415852 -0.116996 0.010344)
(0.0041775 -0.102976 0.0105541)
(0.00422697 -0.088172 0.0104744)
(0.00422412 -0.0731482 0.0100622)
(0.00429435 -0.058742 0.00930553)
(0.00427311 -0.0452822 0.00827025)
(0.00414015 -0.0330841 0.00702477)
(0.00392982 -0.0223485 0.00567618)
(0.00371026 -0.0127775 0.00433371)
(0.00354201 -0.00343302 0.00317819)
(0.00341309 0.00535596 0.00241634)
(0.00328383 0.0160276 0.00204094)
(0.00323053 0.0284587 0.00220199)
(0.0032556 0.0423887 0.00284268)
(0.00331112 0.0569891 0.00376125)
(0.0033624 0.0717958 0.0047381)
(0.00335144 0.0867617 0.00563935)
(0.00316941 0.102167 0.00637054)
(0.00270627 0.118655 0.00662887)
(0.00179675 0.135541 0.00686871)
(0.000838968 0.147302 0.00646498)
(-6.46009e-05 0.14674 0.00510288)
(-0.000288671 0.0964716 0.00207328)
(0.000179784 -0.0548335 0.00190402)
(0.00071535 -0.126592 0.00419766)
(0.00110009 -0.163229 0.00545589)
(0.00137396 -0.178431 0.00614393)
(0.00155995 -0.183817 0.00659118)
(0.001709 -0.184527 0.00696176)
(0.00182066 -0.182248 0.00732287)
(0.00190178 -0.177435 0.00774173)
(0.00194426 -0.170476 0.00822374)
(0.00196182 -0.161645 0.00876159)
(0.00197262 -0.151191 0.00934288)
(0.0019939 -0.139326 0.00996358)
(0.00202815 -0.126244 0.0106091)
(0.00208226 -0.112194 0.0112293)
(0.00217358 -0.0974661 0.0117267)
(0.00231913 -0.0823031 0.011971)
(0.00247979 -0.0670231 0.0118255)
(0.00262095 -0.0522076 0.0111943)
(0.00268719 -0.0385565 0.0100812)
(0.00264101 -0.0266468 0.00860335)
(0.00248605 -0.0165748 0.00693719)
(0.00228401 -0.00727158 0.00531832)
(0.00205482 0.00214541 0.00387586)
(0.00190594 0.0118276 0.00275202)
(0.00196705 0.0236967 0.00205771)
(0.00221022 0.0369681 0.00195768)
(0.00258694 0.0513056 0.00236969)
(0.00296315 0.0663054 0.00309715)
(0.00321698 0.0820529 0.00395623)
(0.00323347 0.0991721 0.00483286)
(0.00288913 0.11825 0.00544943)
(0.00210031 0.136888 0.00557045)
(0.00120028 0.148909 0.00517019)
(0.000290154 0.147416 0.00402621)
(-0.000143655 0.0948697 0.00150793)
(8.05553e-05 -0.0577978 0.00207771)
(0.000245233 -0.13074 0.00469269)
(0.0003135 -0.166885 0.00599653)
(0.000365308 -0.181204 0.00662288)
(0.000371835 -0.185928 0.00698231)
(0.000341965 -0.186194 0.00725788)
(0.000284463 -0.183582 0.00752369)
(0.000212302 -0.178676 0.0078154)
(0.000151077 -0.171804 0.00816345)
(0.000110634 -0.163182 0.00859388)
(9.8974e-05 -0.153019 0.00911831)
(0.000129979 -0.141544 0.00972619)
(0.000213981 -0.129 0.0103901)
(0.000362944 -0.115606 0.0110708)
(0.000576645 -0.10157 0.0117161)
(0.000855137 -0.0871092 0.0122571)
(0.00119796 -0.072427 0.0125983)
(0.00159273 -0.0577654 0.012619)
(0.00198279 -0.0435282 0.0121995)
(0.00227924 -0.0303111 0.0112767)
(0.00240308 -0.0185807 0.00989419)
(0.00234491 -0.00817261 0.00820774)
(0.00214772 0.00158356 0.00645002)
(0.00195284 0.0105864 0.00493379)
(0.00189131 0.0209608 0.00356515)
(0.00203174 0.0328862 0.00263106)
(0.0023643 0.0465199 0.00226361)
(0.00280149 0.0617461 0.00243839)
(0.00317085 0.0786025 0.0030295)
(0.00325248 0.0974937 0.00379479)
(0.00304134 0.11857 0.00452318)
(0.00226559 0.139205 0.00454454)
(0.00142322 0.151688 0.00416338)
(0.000553133 0.149493 0.0032437)
(-4.67234e-05 0.094997 0.00130609)
(-4.15975e-06 -0.0586384 0.00191261)
(-9.49857e-05 -0.132038 0.00402323)
(-0.000228762 -0.169123 0.00501855)
(-0.000285595 -0.184583 0.00560606)
(-0.000320874 -0.190181 0.00601671)
(-0.000353957 -0.191173 0.00636571)
(-0.000383241 -0.18925 0.00672571)
(-0.000394422 -0.185022 0.00713251)
(-0.000382563 -0.178831 0.00760895)
(-0.000340013 -0.170918 0.00817126)
(-0.000257202 -0.16149 0.00882757)
(-0.000126947 -0.150749 0.0095764)
(5.59064e-05 -0.138888 0.0104036)
(0.000294009 -0.126097 0.01128)
(0.000589345 -0.112561 0.0121608)
(0.00094464 -0.0984631 0.0129875)
(0.00136014 -0.083989 0.0136917)
(0.00181781 -0.0693145 0.0141906)
(0.00230972 -0.0546525 0.0143836)
(0.00280365 -0.0403347 0.0141584)
(0.00320876 -0.026847 0.013429)
(0.00347175 -0.0145848 0.0121662)
(0.00358865 -0.00295081 0.0105375)
(0.00351361 0.00665196 0.0089636)
(0.00334007 0.0169685 0.0071956)
(0.00328041 0.0281793 0.00556213)
(0.00332702 0.0408875 0.00432074)
(0.00348883 0.0558971 0.00360745)
(0.0036947 0.0737045 0.00344002)
(0.00375043 0.0946518 0.00372607)
(0.003576 0.118495 0.00420071)
(0.0028748 0.141275 0.00411781)
(0.00199939 0.154668 0.0037235)
(0.00105289 0.152315 0.00295305)
(0.00017923 0.0963503 0.00131987)
(3.26463e-07 -0.0590598 0.00198401)
(-9.57229e-05 -0.132682 0.00408505)
(-0.000239601 -0.169917 0.00491655)
(-0.000283592 -0.185492 0.00539562)
(-0.000303274 -0.191227 0.00570352)
(-0.000324673 -0.192413 0.00594927)
(-0.000342042 -0.190738 0.00620772)
(-0.000343763 -0.186827 0.00651401)
(-0.000321388 -0.181034 0.00689143)
(-0.000275163 -0.173601 0.00736137)
(-0.000202641 -0.16473 0.00794058)
(-9.63981e-05 -0.154615 0.00863597)
(5.06475e-05 -0.14345 0.00944438)
(0.000244928 -0.131424 0.0103514)
(0.000493046 -0.118709 0.0113289)
(0.000800356 -0.105457 0.0123329)
(0.00117133 -0.091815 0.0133065)
(0.0016118 -0.0778952 0.0141784)
(0.00211699 -0.0637975 0.0148605)
(0.00267582 -0.0496991 0.0152476)
(0.00325911 -0.0359062 0.0152263)
(0.00380581 -0.0226904 0.0147015)
(0.00432641 -0.0100828 0.0136028)
(0.00473943 0.00263018 0.0120066)
(0.00489122 0.0128943 0.0104806)
(0.00498046 0.0246485 0.00861231)
(0.00508062 0.0373528 0.00680928)
(0.0051428 0.0519707 0.00538299)
(0.00514592 0.0698644 0.00454818)
(0.00502804 0.0920977 0.00434743)
(0.0045667 0.118479 0.00432287)
(0.00381275 0.143874 0.00424748)
(0.00252987 0.159359 0.00387207)
(0.00117569 0.157355 0.00315707)
(4.4455e-05 0.0994137 0.00155919)
(-3.59427e-05 -0.059321 0.00199963)
(-0.000208217 -0.133065 0.00381815)
(-0.000387926 -0.170936 0.00435991)
(-0.000459299 -0.187862 0.00459704)
(-0.000453883 -0.194733 0.00479402)
(-0.000421249 -0.196704 0.00501953)
(-0.000386005 -0.195685 0.00529666)
(-0.000340995 -0.192392 0.00563627)
(-0.000276137 -0.187211 0.00604915)
(-0.000185845 -0.1804 0.006548)
(-6.33861e-05 -0.17216 0.00714542)
(9.61995e-05 -0.16268 0.00785137)
(0.000294111 -0.152148 0.00867077)
(0.000531543 -0.14075 0.00959867)
(0.000809592 -0.128656 0.0106203)
(0.00112986 -0.116016 0.0117098)
(0.00149357 -0.10296 0.0128285)
(0.00190168 -0.0896092 0.0139276)
(0.00236276 -0.0760409 0.0149448)
(0.0028781 -0.0623145 0.0157967)
(0.00343362 -0.0485716 0.0163682)
(0.00400507 -0.0351679 0.0165233)
(0.00456238 -0.0224725 0.0161375)
(0.00515742 -0.00913132 0.0151983)
(0.00565424 0.00475701 0.0136424)
(0.00594892 0.0163946 0.0119656)
(0.00621166 0.0308413 0.00967329)
(0.00627125 0.0471613 0.00736437)
(0.00615034 0.0668063 0.00551907)
(0.00565073 0.0914776 0.00474405)
(0.00488449 0.120111 0.00403697)
(0.00352855 0.149288 0.00372593)
(0.00207761 0.166336 0.00335352)
(0.000677989 0.163786 0.00275706)
(-0.000258721 0.102146 0.00146027)
(-3.85435e-05 -0.0590499 0.00191346)
(-0.000261204 -0.13268 0.00319862)
(-0.000443839 -0.170972 0.00327513)
(-0.000435171 -0.188073 0.00359991)
(-0.000339143 -0.195099 0.00382236)
(-0.000235255 -0.19737 0.00403331)
(-0.000133282 -0.196759 0.00427624)
(-3.62345e-05 -0.193957 0.00457743)
(6.6993e-05 -0.189331 0.00495429)
(0.000190972 -0.183131 0.00541764)
(0.000341123 -0.175549 0.00598008)
(0.000513748 -0.16676 0.0066556)
(0.000706444 -0.156942 0.00745472)
(0.000919161 -0.146268 0.00838016)
(0.00115302 -0.134905 0.00942566)
(0.00140942 -0.123003 0.0105761)
(0.00168963 -0.110685 0.0118061)
(0.00199471 -0.0980574 0.0130811)
(0.00232553 -0.0851981 0.014358)
(0.00268628 -0.0721452 0.0155795)
(0.00308151 -0.058934 0.0166638)
(0.00348868 -0.0456567 0.0174961)
(0.00386919 -0.032497 0.0179258)
(0.00423826 -0.0194995 0.0177794)
(0.00469589 -0.00497509 0.0169739)
(0.00498029 0.00853158 0.015676)
(0.0051384 0.0247979 0.0135158)
(0.0052294 0.0441679 0.0107304)
(0.00492507 0.0662382 0.00817603)
(0.00454448 0.0928399 0.00625537)
(0.00353948 0.124822 0.00432609)
(0.00251768 0.155395 0.00313606)
(0.00150348 0.17177 0.00252021)
(0.000543544 0.167621 0.00199361)
(-0.000135481 0.102596 0.00113957)
(-6.10179e-05 -0.0584589 0.00178825)
(-0.000321219 -0.131988 0.00268982)
(-0.000436562 -0.171223 0.00260362)
(-0.000354272 -0.1899 0.00256734)
(-0.000144116 -0.198036 0.00262587)
(0.000105294 -0.201082 0.00277235)
(0.00035993 -0.201095 0.00298354)
(0.000609491 -0.198882 0.00325112)
(0.000855465 -0.19481 0.00358322)
(0.00109251 -0.189145 0.00399058)
(0.00132151 -0.182076 0.00449043)
(0.00154379 -0.173778 0.00509877)
(0.0017641 -0.164429 0.00582751)
(0.001984 -0.15421 0.00668798)
(0.00220339 -0.143292 0.00768747)
(0.00242304 -0.131833 0.00882457)
(0.00264458 -0.119957 0.0100879)
(0.00286896 -0.10776 0.0114554)
(0.00309675 -0.0953178 0.0128969)
(0.00332929 -0.0826636 0.0143751)
(0.00356942 -0.0698078 0.0158379)
(0.0038186 -0.0567784 0.0172026)
(0.00405755 -0.0436201 0.0183539)
(0.00426845 -0.0303214 0.0191518)
(0.00454767 -0.0165749 0.0193911)
(0.00484355 -2.32666e-05 0.0188676)
(0.00488459 0.0157334 0.0176856)
(0.00490314 0.037363 0.0152078)
(0.00489519 0.0627227 0.0119118)
(0.00467844 0.0922015 0.0086186)
(0.00420546 0.125713 0.00713249)
(0.00327372 0.157416 0.00562423)
(0.0022386 0.174753 0.00459385)
(0.00124987 0.170755 0.00365509)
(0.000273813 0.104194 0.00198975)
(-6.02038e-05 -0.0578068 0.00149804)
(-0.000243815 -0.1311 0.00173501)
(-0.000292622 -0.171035 0.00158786)
(-4.40671e-05 -0.190128 0.00124765)
(0.000294445 -0.198742 0.00129808)
(0.000680782 -0.202223 0.00147661)
(0.0010639 -0.202623 0.00170656)
(0.00142678 -0.200814 0.0019629)
(0.00177798 -0.197127 0.00226203)
(0.00210472 -0.191852 0.00261497)
(0.00241111 -0.185192 0.0030373)
(0.0026959 -0.177325 0.00354762)
(0.00296322 -0.168432 0.00416215)
(0.00321463 -0.158697 0.00489672)
(0.00344871 -0.148291 0.00576653)
(0.00366727 -0.137373 0.00678027)
(0.00387239 -0.126066 0.00794081)
(0.00406655 -0.114464 0.00924412)
(0.00425141 -0.102629 0.0106782)
(0.00442822 -0.0905959 0.0122248)
(0.00459911 -0.0783535 0.013856)
(0.00476642 -0.0658665 0.0155198)
(0.00493245 -0.0531453 0.0171282)
(0.00508874 -0.0403168 0.0185437)
(0.00523689 -0.0273825 0.0196018)
(0.00549252 -0.0116999 0.0202018)
(0.00574791 0.00789576 0.0198502)
(0.00594096 0.0268659 0.018532)
(0.00613155 0.0548549 0.0155174)
(0.00558252 0.0879095 0.0118925)
(0.00483455 0.125313 0.0092827)
(0.00406753 0.159921 0.00719392)
(0.00283881 0.179977 0.00599036)
(0.00143286 0.176558 0.00489658)
(0.000130552 0.107683 0.00277227)
(-8.23072e-05 -0.0570306 0.00105481)
(-0.000236825 -0.130239 0.000409345)
(-0.000137278 -0.171374 -0.000202909)
(0.000273898 -0.192093 -0.000304847)
(0.000828925 -0.201703 -0.000173719)
(0.00142215 -0.205799 3.4582e-05)
(0.0020154 -0.206688 0.000271315)
(0.00256604 -0.205333 0.000505347)
(0.00309734 -0.20204 0.000758942)
(0.0035809 -0.197129 0.00104636)
(0.0040227 -0.190804 0.00138494)
(0.00441572 -0.183251 0.001794)
(0.00476063 -0.174654 0.00229386)
(0.00505985 -0.165201 0.00290179)
(0.00531615 -0.155074 0.00363126)
(0.00553283 -0.144436 0.00449335)
(0.00571104 -0.133423 0.00549893)
(0.00585225 -0.122131 0.00665644)
(0.00595857 -0.110622 0.00797076)
(0.00602922 -0.0989295 0.00944627)
(0.00606127 -0.0870569 0.0110838)
(0.00605225 -0.0749838 0.0128701)
(0.00600273 -0.0626656 0.0147673)
(0.00590819 -0.050022 0.016703)
(0.00574628 -0.0369339 0.0185518)
(0.00562378 -0.0228208 0.0201322)
(0.00564238 -0.0038841 0.0211908)
(0.00568943 0.0162352 0.0210061)
(0.00585894 0.0479378 0.0186076)
(0.00570849 0.0859621 0.0144404)
(0.00481212 0.127188 0.0103445)
(0.00338872 0.16567 0.00748217)
(0.0019249 0.186294 0.00580893)
(0.00060294 0.181579 0.0046901)
(-0.000155414 0.109121 0.00284366)
(-8.53318e-05 -0.0560436 0.000629772)
(-0.000138834 -0.12971 -0.000403714)
(0.000183651 -0.171863 -0.00125161)
(0.00086977 -0.193563 -0.00154559)
(0.00169762 -0.203756 -0.00149887)
(0.00255432 -0.208146 -0.00133804)
(0.00341041 -0.209183 -0.00114396)
(0.00418711 -0.207964 -0.000967715)
(0.00493651 -0.204802 -0.000792135)
(0.00559789 -0.200018 -0.00060405)
(0.00619175 -0.193797 -0.000385617)
(0.00671061 -0.186353 -0.000116357)
(0.00715209 -0.177882 0.000225712)
(0.00751854 -0.168581 0.000657778)
(0.00781913 -0.158632 0.00119056)
(0.00806198 -0.148196 0.00183068)
(0.00824889 -0.1374 0.00258547)
(0.00837675 -0.126338 0.00346591)
(0.00844296 -0.115063 0.0044861)
(0.00844604 -0.103595 0.00567015)
(0.00837741 -0.0919144 0.00705656)
(0.00822184 -0.0799883 0.00867291)
(0.00796977 -0.0678061 0.0105184)
(0.00762819 -0.0553938 0.0125615)
(0.00717388 -0.04274 0.0147736)
(0.00675049 -0.0293673 0.0169996)
(0.00625072 -0.0113473 0.0196715)
(0.00560416 0.00894083 0.0215477)
(0.00517936 0.0381823 0.0217112)
(0.00526057 0.0814895 0.0185343)
(0.00515792 0.126949 0.0143135)
(0.00378119 0.169249 0.00919898)
(0.00267434 0.189991 0.00672124)
(0.00134118 0.184508 0.00534347)
(0.000157965 0.109738 0.00329544)
(-5.14891e-05 -0.0552437 -0.000199879)
(4.79717e-05 -0.129701 -0.00160518)
(0.000690288 -0.174057 -0.0028287)
(0.00166171 -0.197488 -0.00297431)
(0.00281067 -0.208576 -0.00281724)
(0.00398541 -0.213355 -0.00263463)
(0.00517761 -0.214527 -0.00247697)
(0.00626068 -0.213357 -0.00237407)
(0.00734104 -0.210142 -0.00230242)
(0.008297 -0.205276 -0.00223868)
(0.00916533 -0.199017 -0.00216719)
(0.00993007 -0.191568 -0.00206977)
(0.0105956 -0.183092 -0.00192651)
(0.0111707 -0.173786 -0.00172206)
(0.0116645 -0.163839 -0.00144663)
(0.0120826 -0.153399 -0.00109516)
(0.0124292 -0.142586 -0.000670002)
(0.0127038 -0.131484 -0.000175133)
(0.0128934 -0.120151 0.000391571)
(0.0130169 -0.108621 0.0010587)
(0.0130393 -0.0968307 0.00194273)
(0.0129486 -0.0847351 0.00309678)
(0.0126677 -0.0723581 0.00448556)
(0.0123227 -0.0597596 0.0059706)
(0.0116817 -0.04701 0.00800524)
(0.0108677 -0.0339398 0.0105826)
(0.0100577 -0.0172302 0.0138146)
(0.00889437 0.00633444 0.017621)
(0.00789118 0.0293045 0.0200857)
(0.00753602 0.0707001 0.0206914)
(0.00718501 0.122885 0.0167349)
(0.00632788 0.169704 0.0125731)
(0.00443355 0.195055 0.00930289)
(0.002446 0.191464 0.00732268)
(0.000464613 0.115917 0.00445856)
(-9.60593e-06 -0.055181 -0.00105616)
(0.000477202 -0.131235 -0.00352402)
(0.00156956 -0.177401 -0.00412528)
(0.00295922 -0.202032 -0.00396027)
(0.00442438 -0.213649 -0.00372051)
(0.00588651 -0.218576 -0.00356084)
(0.00738409 -0.21969 -0.00348244)
(0.00873 -0.218427 -0.00348375)
(0.010119 -0.214998 -0.0035528)
(0.0113599 -0.209822 -0.00364908)
(0.0125156 -0.2032 -0.00375548)
(0.0135537 -0.195414 -0.00385609)
(0.0144733 -0.186722 -0.00393708)
(0.0152792 -0.177327 -0.00398888)
(0.0159807 -0.16738 -0.00400712)
(0.0165841 -0.156966 -0.0039913)
(0.0171016 -0.146185 -0.0039565)
(0.0175496 -0.13509 -0.00393587)
(0.0178401 -0.123731 -0.00396117)
(0.0181367 -0.112132 -0.00410608)
(0.0181067 -0.0998906 -0.00382713)
(0.0179335 -0.0871208 -0.00312442)
(0.0176375 -0.073853 -0.00178892)
(0.0169343 -0.0601918 0.000667568)
(0.016185 -0.0466076 0.00298252)
(0.0152547 -0.0330398 0.0051515)
(0.0141018 -0.0164207 0.00788583)
(0.0126466 0.00642574 0.0116776)
(0.0115431 0.0268476 0.0141921)
(0.0101838 0.0665361 0.0167737)
(0.00874638 0.121053 0.0163762)
(0.00676423 0.174207 0.0134588)
(0.00445368 0.205162 0.0104423)
(0.00217135 0.202739 0.00821474)
(9.10413e-05 0.123992 0.0046413)
(4.05226e-05 -0.0563357 -0.00208278)
(0.000882572 -0.135405 -0.00425676)
(0.00243936 -0.183924 -0.00445222)
(0.00419077 -0.209625 -0.00410387)
(0.00594643 -0.221511 -0.00386153)
(0.00765218 -0.226377 -0.00378503)
(0.00940019 -0.227258 -0.00383457)
(0.0109495 -0.225791 -0.00396188)
(0.0125769 -0.222058 -0.00418706)
(0.0140315 -0.216518 -0.00445574)
(0.0154125 -0.209495 -0.00475256)
(0.0166856 -0.201281 -0.00506235)
(0.017848 -0.192148 -0.00537426)
(0.0188974 -0.182332 -0.00568512)
(0.0198327 -0.172025 -0.00600289)
(0.0206513 -0.161347 -0.00635088)
(0.0213374 -0.150319 -0.00676952)
(0.0219139 -0.13881 -0.00736422)
(0.0223576 -0.126536 -0.00781635)
(0.0222919 -0.113595 -0.00745211)
(0.0221664 -0.100275 -0.00722483)
(0.0216653 -0.0866855 -0.00695225)
(0.0208753 -0.0728664 -0.00656964)
(0.0199278 -0.0588374 -0.00625629)
(0.0186623 -0.0446635 -0.00529174)
(0.0171828 -0.0301436 -0.0036093)
(0.0154862 -0.0129353 -0.000764852)
(0.0139729 0.00953816 0.00390363)
(0.0129324 0.0297096 0.00814403)
(0.0107367 0.0710217 0.0128491)
(0.0079463 0.128717 0.0137319)
(0.00451627 0.186285 0.0109158)
(0.00185258 0.216365 0.00817392)
(6.75563e-05 0.211326 0.00601635)
(-0.000628422 0.126562 0.00262824)
(0.00012331 -0.0587937 -0.00285821)
(0.00143009 -0.141885 -0.00466921)
(0.00341218 -0.192438 -0.00418908)
(0.00540287 -0.218419 -0.00356517)
(0.00728204 -0.229974 -0.0033087)
(0.00907999 -0.234374 -0.0033201)
(0.0109125 -0.234707 -0.003493)
(0.0125409 -0.232753 -0.00372871)
(0.0142473 -0.228421 -0.0040736)
(0.015785 -0.222252 -0.00447568)
(0.0172594 -0.21462 -0.0049323)
(0.0186444 -0.205862 -0.00543596)
(0.0199433 -0.196258 -0.0059805)
(0.0211606 -0.186017 -0.00656983)
(0.0222858 -0.175261 -0.0072186)
(0.0233131 -0.164006 -0.00799688)
(0.0241568 -0.152232 -0.00897775)
(0.02475 -0.139557 -0.00993212)
(0.0250292 -0.126089 -0.0109869)
(0.0250616 -0.11142 -0.0125631)
(0.0245015 -0.096051 -0.013949)
(0.023536 -0.0804302 -0.0149354)
(0.0221521 -0.064794 -0.0153485)
(0.0203919 -0.0490365 -0.0150614)
(0.0182986 -0.0327497 -0.013999)
(0.0160352 -0.0167266 -0.0114435)
(0.0135305 8.7781e-05 -0.00731662)
(0.0118697 0.0147599 -0.00328179)
(0.0100198 0.040723 0.00282775)
(0.00748965 0.0845253 0.00939559)
(0.00467122 0.143884 0.010917)
(0.00213891 0.198274 0.00917923)
(0.000610632 0.22218 0.00688662)
(-0.000266187 0.213434 0.00466861)
(-0.000438667 0.125629 0.00151703)
(0.000175801 -0.0632044 -0.00306299)
(0.00179657 -0.151456 -0.00385512)
(0.0039318 -0.203359 -0.00275128)
(0.00586682 -0.228765 -0.00202547)
(0.00756266 -0.239553 -0.00183212)
(0.0092568 -0.243268 -0.00193944)
(0.0108186 -0.2431 -0.00214938)
(0.0123845 -0.240517 -0.00241478)
(0.0138746 -0.235521 -0.00274603)
(0.0152923 -0.228688 -0.0031559)
(0.0166629 -0.220419 -0.00366393)
(0.0179858 -0.211072 -0.00425841)
(0.0192708 -0.200929 -0.00493491)
(0.0205786 -0.190185 -0.00571174)
(0.0216571 -0.179011 -0.00656006)
(0.0227192 -0.166925 -0.00787285)
(0.0237923 -0.153534 -0.00966103)
(0.0243091 -0.138864 -0.0118809)
(0.0243829 -0.122466 -0.0146922)
(0.0238623 -0.104382 -0.0176307)
(0.0228261 -0.0854199 -0.0202118)
(0.0213201 -0.0666556 -0.0221059)
(0.0194539 -0.0483618 -0.0231137)
(0.0172978 -0.0307145 -0.0231507)
(0.0152029 -0.0149503 -0.0215071)
(0.012861 0.000983177 -0.0190225)
(0.0110092 0.0131541 -0.0161293)
(0.00881677 0.0283057 -0.0119307)
(0.0063996 0.0528345 -0.00497403)
(0.00451214 0.093309 0.00389724)
(0.00295248 0.148786 0.0101054)
(0.00123254 0.201849 0.00889684)
(0.000664248 0.224835 0.00700048)
(0.000244262 0.214929 0.00451995)
(-1.42829e-05 0.124866 0.00061117)
(0.000230792 -0.0684219 -0.00261141)
(0.00192727 -0.161635 -0.00204516)
(0.00382853 -0.213634 -0.000479039)
(0.00538427 -0.237526 0.000208364)
(0.00668098 -0.247148 0.000289011)
(0.00796387 -0.250088 0.000101783)
(0.00913633 -0.249385 -0.000102475)
(0.0102725 -0.245955 -0.000231711)
(0.0112791 -0.240324 -0.000407101)
(0.0122964 -0.232954 -0.000797189)
(0.0132696 -0.22425 -0.00134116)
(0.0142563 -0.214585 -0.00194873)
(0.0152702 -0.204204 -0.0026212)
(0.0161817 -0.193146 -0.00348532)
(0.0175059 -0.181061 -0.00513238)
(0.0184651 -0.167797 -0.00709446)
(0.0189357 -0.152203 -0.00967787)
(0.01908 -0.133263 -0.0137915)
(0.0183106 -0.111782 -0.0192921)
(0.0169177 -0.0893647 -0.0250099)
(0.0152602 -0.0668857 -0.0295786)
(0.0136001 -0.0458972 -0.0324257)
(0.0119236 -0.0269041 -0.03358)
(0.0106226 -0.0105288 -0.0328085)
(0.00924032 0.00495738 -0.0312357)
(0.00815126 0.016625 -0.0292635)
(0.00672753 0.0296981 -0.0261847)
(0.00504781 0.0448117 -0.0213767)
(0.00312013 0.0659106 -0.0139852)
(0.00133716 0.100311 -0.00418733)
(0.000603459 0.151502 0.0027816)
(0.00117407 0.200602 0.00805572)
(0.000878448 0.224281 0.00707908)
(0.000761139 0.215538 0.00448032)
(0.000295683 0.12484 7.99066e-05)
(0.000290605 -0.0745921 -0.00148873)
(0.00165531 -0.171518 0.000332069)
(0.0028995 -0.222523 0.00203211)
(0.0037924 -0.244722 0.00262081)
(0.00448494 -0.253318 0.00266126)
(0.00517238 -0.255614 0.00250278)
(0.00568867 -0.254272 0.0023733)
(0.00633163 -0.249909 0.00207919)
(0.00677629 -0.243429 0.00165552)
(0.00755751 -0.235424 0.000850668)
(0.00796674 -0.226258 0.00035865)
(0.00846442 -0.216206 7.50657e-06)
(0.00894002 -0.205425 -0.000309266)
(0.00939074 -0.193877 -0.000700655)
(0.00951439 -0.181134 -0.00116057)
(0.00975293 -0.165773 -0.00232901)
(0.00930388 -0.144753 -0.00508661)
(0.00866671 -0.118113 -0.0120066)
(0.00740978 -0.0897387 -0.0220199)
(0.00561292 -0.0644172 -0.031768)
(0.00374846 -0.0420091 -0.0384413)
(0.00260962 -0.022935 -0.0417179)
(0.00203905 -0.0071777 -0.0427611)
(0.00180344 0.00667893 -0.0426302)
(0.00192261 0.0190808 -0.0414431)
(0.00202293 0.0313317 -0.0392927)
(0.001862 0.0435258 -0.0362344)
(0.00146488 0.0570101 -0.0315612)
(0.00062269 0.0750756 -0.0243663)
(1.31148e-05 0.104358 -0.0140208)
(0.000220651 0.150027 -0.00332553)
(0.000835274 0.198552 0.00336593)
(0.000929015 0.22352 0.00514529)
(0.00039058 0.215335 0.00391669)
(2.02713e-06 0.123595 -0.000357478)
(0.000161747 -0.0780732 6.65477e-06)
(0.000616987 -0.17626 0.00257022)
(0.000892772 -0.225802 0.00408846)
(0.00102664 -0.246696 0.00452695)
(0.00108508 -0.254603 0.00451296)
(0.00108878 -0.256465 0.00432228)
(0.00114504 -0.254636 0.00415398)
(0.0010904 -0.250116 0.00406023)
(0.00116528 -0.2435 0.0041558)
(0.00085728 -0.235143 0.0048304)
(0.000828435 -0.225419 0.00561634)
(0.0006212 -0.214645 0.00645227)
(0.000310258 -0.202969 0.00725526)
(-5.11014e-05 -0.190174 0.00787221)
(-0.000482519 -0.175412 0.0079208)
(-0.00117187 -0.157126 0.00648523)
(-0.00124795 -0.134048 0.00104371)
(-0.00158432 -0.103844 -0.0080705)
(-0.0018425 -0.0696919 -0.0192835)
(-0.00235597 -0.0393709 -0.03185)
(-0.0026632 -0.019552 -0.0405786)
(-0.002769 -0.00448675 -0.045344)
(-0.00240835 0.00806399 -0.0473745)
(-0.00190672 0.0195834 -0.0481592)
(-0.00117683 0.0309929 -0.0478572)
(-0.000394434 0.0425536 -0.0465355)
(0.00031992 0.0544248 -0.0441553)
(0.000733877 0.0671578 -0.0405048)
(0.000668651 0.0830872 -0.0343594)
(0.000251049 0.107812 -0.024314)
(0.00111256 0.149208 -0.0118478)
(0.00194335 0.197362 -0.00201474)
(0.00140177 0.223165 0.00312964)
(0.000586265 0.21528 0.00256806)
(9.81761e-05 0.122096 -0.000937737)
(2.69906e-05 -0.0781494 0.00122153)
(2.39956e-05 -0.176488 0.00406007)
(-5.57747e-05 -0.225987 0.00545857)
(-0.000120494 -0.246797 0.0059722)
(-0.000200542 -0.254649 0.00615693)
(-0.000291784 -0.256461 0.00620645)
(-0.000321703 -0.254519 0.00595935)
(-0.000406551 -0.249757 0.00577174)
(-0.000513402 -0.242758 0.00581153)
(-0.000634419 -0.234018 0.00609321)
(-0.00081574 -0.223954 0.00656964)
(-0.00107293 -0.212852 0.00718403)
(-0.00138637 -0.20087 0.00787579)
(-0.00173763 -0.187907 0.00855551)
(-0.00207348 -0.173393 0.00905086)
(-0.0022515 -0.156094 0.00901074)
(-0.00211885 -0.134165 0.00790958)
(-0.00137959 -0.105961 0.004137)
(2.76999e-06 -0.0719317 -0.0057933)
(0.00143006 -0.0387582 -0.0177592)