/*--------------------------------*- C++ -*----------------------------------*\
| =========                 |                                                 |
| \\      /  F ield         | OpenFOAM: The Open Source CFD Toolbox           |
|  \\    /   O peration     | Version:  2.0.x                                 |
|   \\  /    A nd           | Web:      www.OpenFOAM.org                      |
|    \\/     M anipulation  |                                                 |
\*---------------------------------------------------------------------------*/
FoamFile
{
    version     2.0;
    format      ascii;
    class       volScalarField;
    location    "700";
    object      alphat;
}
// * * * * * * * * * * * * * * * * * * * * * * * * * * * * * * * * * * * * * //

dimensions      [1 -1 -1 0 0 0 0];

internalField   nonuniform List<scalar> 
78750
(
1.42581e-07
1.35584e-05
1.52082e-05
1.95301e-05
2.46874e-05
2.67398e-05
2.61818e-05
2.44998e-05
2.33822e-05
2.35953e-05
2.37897e-05
2.36325e-05
2.42732e-05
2.45641e-05
2.50435e-05
2.56171e-05
2.61981e-05
2.68144e-05
2.75189e-05
2.81646e-05
2.8596e-05
3.06047e-05
3.11096e-05
3.14226e-05
3.29893e-05
3.24973e-05
3.22249e-05
3.14863e-05
3.00481e-05
2.7547e-05
2.54614e-05
2.29701e-05
1.93524e-05
1.60174e-05
1.65261e-07
1.21441e-07
2.05317e-05
1.58848e-05
9.16834e-06
9.17254e-06
1.47831e-05
2.21033e-05
2.98581e-05
3.50002e-05
3.85557e-05
4.1094e-05
4.27896e-05
4.56096e-05
4.81659e-05
4.95435e-05
5.2294e-05
5.46022e-05
5.70093e-05
5.9419e-05
6.19999e-05
6.34311e-05
6.11348e-05
5.8888e-05
6.03698e-05
6.41848e-05
6.55287e-05
6.17504e-05
4.287e-05
4.00865e-05
4.35951e-05
3.06957e-05
2.20809e-05
1.93051e-05
2.36996e-05
3.47899e-07
2.79426e-08
5.46974e-06
5.2871e-06
6.06012e-06
8.2735e-06
1.39362e-05
2.37745e-05
3.84734e-05
5.40925e-05
6.46311e-05
6.99676e-05
7.28531e-05
7.42334e-05
7.56254e-05
7.69166e-05
7.74302e-05
7.76233e-05
7.75398e-05
7.69113e-05
7.59466e-05
7.44521e-05
7.06365e-05
6.86456e-05
6.57279e-05
5.91163e-05
5.68889e-05
5.17863e-05
3.68574e-05
3.4514e-05
3.52643e-05
2.31196e-05
1.59907e-05
1.60227e-05
3.17229e-05
3.92948e-07
2.25397e-08
4.11801e-06
6.95911e-06
1.17105e-05
2.12898e-05
3.64805e-05
5.43505e-05
6.80317e-05
7.68149e-05
8.31786e-05
8.77202e-05
9.10397e-05
9.43583e-05
9.6856e-05
9.71205e-05
9.48826e-05
9.07995e-05
8.6762e-05
8.28418e-05
7.88837e-05
7.48559e-05
7.0241e-05
6.40132e-05
5.84406e-05
5.46794e-05
5.21056e-05
4.63014e-05
3.50988e-05
3.37909e-05
3.07767e-05
1.9254e-05
1.30654e-05
1.39672e-05
3.35647e-05
4.09059e-07
2.3734e-08
4.41215e-06
9.23951e-06
1.6814e-05
2.77279e-05
4.10111e-05
5.39453e-05
6.53489e-05
7.56358e-05
8.41015e-05
9.05175e-05
9.38171e-05
9.1753e-05
8.89352e-05
8.74694e-05
8.62793e-05
8.56323e-05
8.46236e-05
8.27054e-05
7.99672e-05
7.65223e-05
7.24961e-05
6.77565e-05
6.27675e-05
5.80112e-05
5.30871e-05
4.70538e-05
3.57083e-05
3.17543e-05
3.06777e-05
1.77746e-05
1.11902e-05
1.27407e-05
3.33735e-05
4.05612e-07
5.23376e-08
4.58239e-06
1.0716e-05
2.17549e-05
3.86988e-05
5.53756e-05
6.87899e-05
7.89816e-05
8.55505e-05
8.93238e-05
9.2066e-05
9.47971e-05
9.6352e-05
9.43195e-05
9.15244e-05
9.14107e-05
9.11789e-05
8.82949e-05
8.45759e-05
8.0839e-05
7.70961e-05
7.31107e-05
6.86666e-05
6.3746e-05
5.849e-05
5.3145e-05
4.69151e-05
3.71575e-05
3.38872e-05
2.87915e-05
1.637e-05
1.05843e-05
1.22094e-05
3.06456e-05
4.05904e-07
6.77396e-08
5.0769e-06
1.24783e-05
2.498e-05
4.20833e-05
5.95223e-05
7.34879e-05
8.33628e-05
9.06826e-05
9.5245e-05
9.54905e-05
9.24951e-05
9.07827e-05
9.21036e-05
9.22845e-05
9.01373e-05
8.70061e-05
8.43973e-05
8.24663e-05
8.08673e-05
7.90582e-05
7.65054e-05
7.28528e-05
6.85397e-05
6.38629e-05
5.87688e-05
5.20584e-05
4.03483e-05
3.36011e-05
2.73103e-05
1.55821e-05
1.01496e-05
1.21427e-05
2.91653e-05
4.04961e-07
1.01371e-07
5.38309e-06
1.39292e-05
2.98567e-05
5.17451e-05
6.88386e-05
7.91891e-05
8.51292e-05
8.71565e-05
8.76454e-05
8.94216e-05
9.2466e-05
9.4024e-05
9.32289e-05
9.05882e-05
8.74906e-05
8.46153e-05
8.27181e-05
8.18479e-05
8.13397e-05
8.09283e-05
8.0354e-05
7.9106e-05
7.6507e-05
7.16649e-05
6.37465e-05
5.31364e-05
4.20483e-05
3.79932e-05
2.7216e-05
1.4899e-05
1.02706e-05
1.2608e-05
2.64407e-05
4.05199e-07
1.20091e-07
5.82452e-06
1.55552e-05
3.31139e-05
5.45619e-05
7.07107e-05
8.10632e-05
8.67503e-05
8.7032e-05
8.72353e-05
8.80377e-05
8.78563e-05
8.75909e-05
8.76024e-05
8.75957e-05
8.65167e-05
8.46978e-05
8.38965e-05
8.44945e-05
8.5526e-05
8.61138e-05
8.59106e-05
8.46878e-05
8.2163e-05
7.75873e-05
6.97779e-05
5.81497e-05
4.56747e-05
3.92969e-05
2.59652e-05
1.4378e-05
1.03833e-05
1.32781e-05
2.31505e-05
4.03316e-07
1.51832e-07
6.17835e-06
1.70013e-05
3.7715e-05
6.13489e-05
7.51624e-05
7.98564e-05
7.92551e-05
8.0702e-05
8.21941e-05
8.2337e-05
8.25455e-05
8.37554e-05
8.57404e-05
8.78697e-05
8.91942e-05
8.84602e-05
8.68531e-05
8.72797e-05
8.93342e-05
9.10143e-05
9.16807e-05
9.09852e-05
8.85971e-05
8.38085e-05
7.54269e-05
6.1917e-05
5.08276e-05
4.16604e-05
2.55387e-05
1.44289e-05
1.07239e-05
1.42114e-05
2.00559e-05
3.99542e-07
1.75917e-07
6.61646e-06
1.88529e-05
4.19892e-05
6.44464e-05
7.58669e-05
7.81865e-05
7.58615e-05
7.43354e-05
7.24601e-05
7.33335e-05
7.65233e-05
8.10196e-05
8.5929e-05
9.04574e-05
9.38623e-05
9.53218e-05
9.41261e-05
9.31704e-05
9.46773e-05
9.6812e-05
9.7852e-05
9.71506e-05
9.4199e-05
8.82223e-05
7.88909e-05
6.69484e-05
5.8095e-05
4.13307e-05
2.403e-05
1.45287e-05
1.12694e-05
1.55552e-05
1.73547e-05
3.96422e-07
2.12631e-07
6.98386e-06
2.07196e-05
4.7731e-05
6.93888e-05
7.36188e-05
7.01687e-05
6.67719e-05
6.35414e-05
6.42399e-05
6.86243e-05
7.54823e-05
8.30749e-05
9.0045e-05
9.56518e-05
9.9606e-05
0.000101616
0.000101354
9.91254e-05
9.88102e-05
0.000101235
0.000102721
0.000102145
9.90868e-05
9.31492e-05
8.42814e-05
7.23227e-05
6.13142e-05
4.20942e-05
2.44076e-05
1.48613e-05
1.18832e-05
1.70945e-05
1.5432e-05
3.94098e-07
2.4641e-07
7.44554e-06
2.30926e-05
5.25587e-05
7.05132e-05
7.11095e-05
6.37807e-05
5.70027e-05
5.49048e-05
5.86077e-05
6.66984e-05
7.66527e-05
8.62918e-05
9.44654e-05
0.000100876
0.000105265
0.00010755
0.000107653
0.000105874
0.000104805
0.000105886
0.000107078
0.000106416
0.000103483
9.79791e-05
8.87505e-05
7.89933e-05
6.09261e-05
3.99709e-05
2.46745e-05
1.55083e-05
1.27692e-05
1.91539e-05
1.39329e-05
3.92891e-07
2.88841e-07
7.87095e-06
2.57002e-05
5.85992e-05
7.05953e-05
6.5632e-05
5.61775e-05
4.92692e-05
4.92664e-05
5.55564e-05
6.58731e-05
7.76292e-05
8.84449e-05
9.70292e-05
0.000103456
0.00010807
0.000111053
0.000112188
0.000111261
0.000108894
0.00010835
0.000109791
0.0001099
0.000107708
0.000102563
9.2803e-05
8.08135e-05
6.07311e-05
3.98049e-05
2.49712e-05
1.61701e-05
1.37225e-05
2.14177e-05
1.28945e-05
3.92472e-07
3.17507e-07
8.19779e-06
2.77767e-05
6.08825e-05
6.93644e-05
6.21428e-05
5.25903e-05
4.71586e-05
4.68327e-05
5.1492e-05
6.08229e-05
7.33921e-05
8.59108e-05
9.60776e-05
0.000103727
0.00010908
0.000112384
0.000113813
0.000113489
0.000112006
0.000111705
0.000112574
0.000112112
0.000109653
0.000104919
9.68966e-05
7.93215e-05
5.77754e-05
3.93272e-05
2.53111e-05
1.69629e-05
1.49809e-05
2.42855e-05
1.20965e-05
3.9262e-07
3.38698e-07
8.30812e-06
2.88194e-05
6.23363e-05
6.83873e-05
6.11111e-05
5.29008e-05
4.77948e-05
4.62068e-05
4.87015e-05
5.5191e-05
6.4599e-05
7.59179e-05
8.85491e-05
9.89131e-05
0.000106269
0.000111121
0.000113766
0.00011446
0.000113747
0.000113116
0.000113428
0.000113276
0.000110954
0.000105648
9.62658e-05
7.77632e-05
5.65615e-05
3.88715e-05
2.56015e-05
1.77638e-05
1.63406e-05
2.7335e-05
1.15667e-05
3.93926e-07
3.42656e-07
8.26263e-06
2.79348e-05
6.06295e-05
6.87006e-05
6.40343e-05
5.62719e-05
5.00353e-05
4.64457e-05
4.5645e-05
4.8305e-05
5.48955e-05
6.49244e-05
7.63081e-05
8.79926e-05
9.93098e-05
0.000107299
0.000112024
0.000114313
0.000114656
0.000113674
0.000112932
0.00011235
0.000110405
0.000106117
9.30988e-05
7.38494e-05
5.49735e-05
3.83702e-05
2.59243e-05
1.867e-05
1.79517e-05
3.08549e-05
1.12102e-05
3.97678e-07
3.42747e-07
8.21128e-06
2.65347e-05
5.68497e-05
6.76457e-05
6.54564e-05
5.95078e-05
5.36879e-05
4.92941e-05
4.64789e-05
4.54583e-05
4.70604e-05
5.2259e-05
6.12068e-05
7.3022e-05
8.4769e-05
9.55706e-05
0.000104491
0.000109491
0.000111545
0.000111822
0.000111707
0.000111187
0.000108635
0.000102748
8.868e-05
7.03389e-05
5.29983e-05
3.77146e-05
2.61934e-05
1.9577e-05
1.96533e-05
3.43347e-05
1.1001e-05
4.0286e-07
3.37412e-07
8.13231e-06
2.59053e-05
5.40025e-05
6.64758e-05
6.66607e-05
6.28297e-05
5.78118e-05
5.34201e-05
4.99752e-05
4.74073e-05
4.58216e-05
4.58766e-05
4.88046e-05
5.55196e-05
6.56806e-05
7.76902e-05
8.85451e-05
9.75118e-05
0.00010373
0.000106397
0.000106994
0.000106158
0.000104619
9.76143e-05
8.30901e-05
6.66175e-05
5.08133e-05
3.69553e-05
2.64338e-05
2.05295e-05
2.14796e-05
3.76335e-05
1.08902e-05
4.10484e-07
3.2017e-07
7.97795e-06
2.44573e-05
5.18168e-05
6.62541e-05
6.89963e-05
6.67054e-05
6.2525e-05
5.80964e-05
5.42114e-05
5.09831e-05
4.83195e-05
4.62056e-05
4.49693e-05
4.54344e-05
4.87852e-05
5.57623e-05
6.59743e-05
7.72904e-05
8.67967e-05
9.36665e-05
9.73061e-05
9.80716e-05
9.75173e-05
9.01008e-05
7.66902e-05
6.2669e-05
4.86018e-05
3.60585e-05
2.65681e-05
2.14257e-05
2.32942e-05
4.04666e-05
1.08339e-05
4.20185e-07
2.94106e-07
7.8575e-06
2.31653e-05
4.89038e-05
6.60089e-05
7.09988e-05
7.07222e-05
6.772e-05
6.34377e-05
5.89745e-05
5.48882e-05
5.14104e-05
4.85338e-05
4.61617e-05
4.4325e-05
4.33389e-05
4.39359e-05
4.71655e-05
5.37439e-05
6.32877e-05
7.31438e-05
8.06185e-05
8.52137e-05
8.78466e-05
8.16382e-05
6.95561e-05
5.80375e-05
4.60654e-05
3.50497e-05
2.65504e-05
2.22924e-05
2.51765e-05
4.28848e-05
1.08183e-05
4.32153e-07
2.73872e-07
7.74478e-06
2.26555e-05
4.83654e-05
6.65888e-05
7.34692e-05
7.47657e-05
7.27238e-05
6.88523e-05
6.41707e-05
5.94736e-05
5.51036e-05
5.13421e-05
4.82133e-05
4.5737e-05
4.37696e-05
4.22101e-05
4.13534e-05
4.18727e-05
4.46247e-05
5.01376e-05
5.85231e-05
7.02906e-05
7.52179e-05
6.97207e-05
6.26329e-05
5.33976e-05
4.33407e-05
3.37936e-05
2.64511e-05
2.30991e-05
2.69974e-05
4.46991e-05
1.08316e-05
4.48014e-07
2.70563e-07
7.62383e-06
2.20245e-05
4.74315e-05
6.7409e-05
7.57421e-05
7.79653e-05
7.66127e-05
7.30527e-05
6.85026e-05
6.40332e-05
5.98014e-05
5.58462e-05
5.23076e-05
4.88884e-05
4.62889e-05
4.40957e-05
4.18916e-05
3.99637e-05
3.86923e-05
3.87293e-05
4.15399e-05
5.12657e-05
5.95183e-05
5.78533e-05
5.49778e-05
4.87303e-05
4.05778e-05
3.25497e-05
2.62664e-05
2.37895e-05
2.87176e-05
4.60125e-05
1.08508e-05
4.68335e-07
2.79702e-07
7.49374e-06
2.15454e-05
4.7564e-05
6.88845e-05
7.75856e-05
7.99635e-05
7.83954e-05
7.42918e-05
6.88156e-05
6.30469e-05
5.96471e-05
5.91042e-05
5.92378e-05
5.78289e-05
5.39692e-05
4.96295e-05
4.56903e-05
4.20554e-05
3.85734e-05
3.54061e-05
3.39792e-05
3.92963e-05
4.58746e-05
4.58862e-05
4.65993e-05
4.37398e-05
3.78086e-05
3.1143e-05
2.59428e-05
2.43829e-05
3.02385e-05
4.69587e-05
1.0836e-05
4.90919e-07
3.11772e-07
7.49369e-06
2.18887e-05
4.92803e-05
7.07693e-05
7.86399e-05
7.99118e-05
7.67916e-05
7.12565e-05
6.55452e-05
6.22085e-05
6.11589e-05
6.12019e-05
6.20049e-05
6.29332e-05
6.18246e-05
5.82209e-05
5.31086e-05
4.73846e-05
4.14434e-05
3.56978e-05
3.16434e-05
3.38777e-05
3.72514e-05
3.67352e-05
3.83727e-05
3.8078e-05
3.46178e-05
2.95518e-05
2.54984e-05
2.4825e-05
3.16283e-05
4.76435e-05
1.07216e-05
5.09464e-07
3.5537e-07
7.59355e-06
2.25877e-05
5.13808e-05
7.19589e-05
7.81968e-05
7.75071e-05
7.27213e-05
6.721e-05
6.35143e-05
6.21159e-05
6.22814e-05
6.34238e-05
6.47126e-05
6.62224e-05
6.6973e-05
6.5186e-05
6.08976e-05
5.44685e-05
4.66974e-05
3.87418e-05
3.26112e-05
3.03863e-05
3.21829e-05
3.25046e-05
3.17373e-05
3.23883e-05
3.09807e-05
2.76904e-05
2.48004e-05
2.50748e-05
3.29306e-05
4.79887e-05
1.05232e-05
5.20159e-07
3.96482e-07
7.71063e-06
2.33781e-05
5.33128e-05
7.27324e-05
7.74176e-05
7.53475e-05
7.05837e-05
6.60832e-05
6.32021e-05
6.22375e-05
6.30896e-05
6.55484e-05
6.88178e-05
7.12375e-05
7.2188e-05
7.13081e-05
6.77459e-05
6.13958e-05
5.29517e-05
4.37918e-05
3.5506e-05
2.97158e-05
2.87786e-05
2.86388e-05
2.76143e-05
2.81103e-05
2.75196e-05
2.56617e-05
2.39975e-05
2.53558e-05
3.4311e-05
4.77634e-05
1.0247e-05
5.21454e-07
4.21648e-07
7.79632e-06
2.35891e-05
5.30295e-05
7.29134e-05
7.75991e-05
7.56024e-05
7.13895e-05
6.74087e-05
6.47247e-05
6.36584e-05
6.4308e-05
6.65344e-05
6.97752e-05
7.31251e-05
7.56305e-05
7.61606e-05
7.38285e-05
6.83462e-05
5.98547e-05
4.94295e-05
3.92778e-05
3.15353e-05
2.81681e-05
2.59883e-05
2.44313e-05
2.46138e-05
2.44059e-05
2.35925e-05
2.30861e-05
2.55391e-05
3.57216e-05
4.69696e-05
9.97632e-06
5.19305e-07
4.23199e-07
7.78527e-06
2.35214e-05
5.24694e-05
7.20564e-05
7.78078e-05
7.71804e-05
7.40538e-05
7.04847e-05
6.74701e-05
6.55991e-05
6.50802e-05
6.59393e-05
6.81292e-05
7.12448e-05
7.43671e-05
7.6269e-05
7.58771e-05
7.2284e-05
6.5148e-05
5.50485e-05
4.39775e-05
3.45908e-05
2.91065e-05
2.48357e-05
2.21269e-05
2.19698e-05
2.20988e-05
2.18115e-05
2.21399e-05
2.56698e-05
3.70381e-05
4.57068e-05
9.71214e-06
5.15288e-07
4.0579e-07
7.51923e-06
2.26074e-05
5.02821e-05
6.95694e-05
7.62887e-05
7.74837e-05
7.60829e-05
7.36437e-05
7.0976e-05
6.84733e-05
6.65545e-05
6.56018e-05
6.594e-05
6.76553e-05
7.04297e-05
7.32408e-05
7.45659e-05
7.30936e-05
6.83433e-05
6.04669e-05
5.00105e-05
3.90482e-05
3.02092e-05
2.54426e-05
2.18942e-05
1.98819e-05
1.99598e-05
2.0227e-05
2.12748e-05
2.57105e-05
3.8107e-05
4.42881e-05
9.50653e-06
5.16393e-07
3.6545e-07
7.18431e-06
2.07863e-05
4.57292e-05
6.55902e-05
7.38433e-05
7.62703e-05
7.60755e-05
7.46476e-05
7.25612e-05
7.00868e-05
6.74622e-05
6.50803e-05
6.34246e-05
6.30126e-05
6.41342e-05
6.66006e-05
6.9473e-05
7.09967e-05
6.95414e-05
6.41003e-05
5.4889e-05
4.37003e-05
3.31826e-05
2.72776e-05
2.22684e-05
1.88404e-05
1.84584e-05
1.89124e-05
2.04878e-05
2.56465e-05
3.87401e-05
4.29415e-05
9.36516e-06
5.25459e-07
3.2282e-07
6.88396e-06
1.91663e-05
4.22406e-05
6.32936e-05
7.25822e-05
7.58139e-05
7.6117e-05
7.49015e-05
7.29101e-05
7.04537e-05
6.77362e-05
6.48615e-05
6.21868e-05
6.01723e-05
5.93191e-05
6.00636e-05
6.23703e-05
6.5406e-05
6.74121e-05
6.62137e-05
5.99057e-05
4.91392e-05
3.75261e-05
3.09895e-05
2.40913e-05
1.87321e-05
1.7404e-05
1.78162e-05
1.97193e-05
2.54509e-05
3.90761e-05
4.19311e-05
9.30173e-06
5.45643e-07
3.0324e-07
6.72919e-06
1.84416e-05
4.05412e-05
6.25967e-05
7.34865e-05
7.74911e-05
7.81634e-05
7.6853e-05
7.4551e-05
7.16728e-05
6.87123e-05
6.56397e-05
6.2312e-05
5.95189e-05
5.76426e-05
5.68746e-05
5.75134e-05
5.98198e-05
6.29822e-05
6.47607e-05
6.20025e-05
5.34254e-05
4.25895e-05
3.65776e-05
2.75106e-05
1.97689e-05
1.72284e-05
1.71141e-05
1.91625e-05
2.53107e-05
3.9293e-05
4.11279e-05
9.27336e-06
5.75967e-07
3.05094e-07
6.53917e-06
1.77495e-05
3.95615e-05
6.29622e-05
7.49781e-05
7.96404e-05
8.0879e-05
7.96774e-05
7.70957e-05
7.31555e-05
6.78679e-05
6.34008e-05
6.12516e-05
6.0336e-05
5.99232e-05
5.9708e-05
5.98728e-05
6.01903e-05
6.15656e-05
6.31785e-05
6.16849e-05
5.61502e-05
5.32153e-05
4.30334e-05
2.93845e-05
2.15947e-05
1.77703e-05
1.69588e-05
1.88752e-05
2.53132e-05
3.95976e-05
4.06238e-05
9.26181e-06
6.11881e-07
3.45507e-07
6.70226e-06
1.82692e-05
4.09556e-05
6.43341e-05
7.56984e-05
8.01699e-05
8.16561e-05
7.99258e-05
7.4903e-05
6.88469e-05
6.43993e-05
6.17127e-05
6.0796e-05
6.16106e-05
6.33894e-05
6.49581e-05
6.59582e-05
6.68014e-05
6.79436e-05
6.88416e-05
6.8624e-05
6.62841e-05
6.44438e-05
5.12765e-05
3.40888e-05
2.37799e-05
1.85309e-05
1.70762e-05
1.88193e-05
2.54847e-05
4.02445e-05
3.9664e-05
9.10857e-06
6.37179e-07
4.32848e-07
7.06246e-06
1.95648e-05
4.36198e-05
6.60801e-05
7.60997e-05
7.97429e-05
7.88728e-05
7.49498e-05
7.01422e-05
6.43423e-05
5.855e-05
5.54244e-05
5.63481e-05
6.05826e-05
6.60621e-05
7.10598e-05
7.45891e-05
7.65238e-05
7.88102e-05
8.21494e-05
8.35172e-05
8.35217e-05
7.45642e-05
5.62887e-05
3.92139e-05
2.68271e-05
1.98887e-05
1.75492e-05
1.91874e-05
2.6224e-05
4.14971e-05
3.88598e-05
8.85899e-06
6.3495e-07
5.78435e-07
7.70974e-06
2.22355e-05
4.96429e-05
6.96716e-05
7.74387e-05
7.99014e-05
7.7982e-05
7.19198e-05
6.21742e-05
5.25104e-05
4.6943e-05
4.79147e-05
5.52729e-05
6.56414e-05
7.5943e-05
8.38049e-05
8.92023e-05
9.41315e-05
9.62744e-05
9.58363e-05
9.75917e-05
9.19348e-05
7.62479e-05
5.84045e-05
4.14826e-05
2.88398e-05
2.12753e-05
1.83126e-05
1.96491e-05
2.72665e-05
4.42015e-05
3.68876e-05
8.4751e-06
6.08087e-07
6.72306e-07
8.14157e-06
2.41274e-05
5.20893e-05
7.093e-05
7.74032e-05
7.60645e-05
6.89681e-05
5.8149e-05
4.99072e-05
4.6192e-05
4.66516e-05
5.10565e-05
5.86286e-05
6.87251e-05
7.92851e-05
8.95389e-05
9.75605e-05
0.000100826
0.00010004
9.93066e-05
0.000103614
9.50287e-05
7.41056e-05
5.61107e-05
4.06572e-05
2.92035e-05
2.20731e-05
1.9164e-05
2.07901e-05
2.87759e-05
4.53196e-05
3.43454e-05
7.95188e-06
5.39846e-07
6.70813e-07
8.26497e-06
2.57384e-05
5.47725e-05
6.94775e-05
7.17142e-05
6.89796e-05
6.52396e-05
6.42376e-05
6.02344e-05
5.37801e-05
5.05316e-05
5.03737e-05
5.24328e-05
5.70533e-05
6.51589e-05
7.51236e-05
8.34777e-05
8.97568e-05
9.41974e-05
9.76432e-05
9.81184e-05
9.30045e-05
7.25952e-05
5.25184e-05
3.95162e-05
2.9518e-05
2.30005e-05
2.0372e-05
2.20372e-05
3.10997e-05
4.89354e-05
3.23375e-05
7.63809e-06
4.78434e-07
5.87e-07
8.03701e-06
2.49636e-05
5.13413e-05
6.62052e-05
7.10685e-05
7.30049e-05
7.36996e-05
7.03212e-05
6.49982e-05
6.0801e-05
5.70688e-05
5.35591e-05
5.06931e-05
4.95011e-05
5.05966e-05
5.43083e-05
6.15964e-05
7.09723e-05
7.96164e-05
8.54547e-05
8.69075e-05
8.42209e-05
6.77994e-05
4.97543e-05
3.831e-05
2.98495e-05
2.39552e-05
2.14412e-05
2.34051e-05
3.33264e-05
5.08178e-05
3.1292e-05
7.51478e-06
4.50779e-07
4.63884e-07
7.63178e-06
2.27343e-05
4.74442e-05
6.47468e-05
7.20934e-05
7.45682e-05
7.4178e-05
7.15405e-05
6.91493e-05
6.77531e-05
6.49832e-05
6.11132e-05
5.66637e-05
5.22475e-05
4.84939e-05
4.61522e-05
4.56983e-05
4.75783e-05
5.24062e-05
6.03341e-05
6.75455e-05
6.75069e-05
5.74224e-05
4.63915e-05
3.7488e-05
2.99086e-05
2.48516e-05
2.27466e-05
2.51762e-05
3.55349e-05
5.22207e-05
3.19319e-05
7.71178e-06
4.53732e-07
3.88455e-07
7.12959e-06
2.06867e-05
4.52069e-05
6.55405e-05
7.46555e-05
7.77504e-05
7.76741e-05
7.70046e-05
7.53739e-05
7.29458e-05
7.0035e-05
6.6687e-05
6.31639e-05
5.93863e-05
5.52304e-05
5.07844e-05
4.65139e-05
4.32334e-05
4.168e-05
4.22105e-05
4.41859e-05
4.68495e-05
4.61992e-05
4.14056e-05
3.59355e-05
3.04536e-05
2.56404e-05
2.36728e-05
2.61011e-05
3.65616e-05
5.2953e-05
3.24804e-05
7.94033e-06
4.76748e-07
3.64259e-07
6.9543e-06
1.98176e-05
4.38865e-05
6.55169e-05
7.56675e-05
7.96843e-05
8.07651e-05
8.09502e-05
8.10042e-05
7.98886e-05
7.79366e-05
7.51532e-05
7.15569e-05
6.7281e-05
6.24915e-05
5.72597e-05
5.19223e-05
4.66092e-05
4.16514e-05
3.76276e-05
3.52031e-05
3.49346e-05
3.68518e-05
3.55212e-05
3.17602e-05
2.8837e-05
2.59029e-05
2.43962e-05
2.72274e-05
3.74802e-05
5.27957e-05
3.44603e-05
8.29015e-06
5.2029e-07
3.46873e-07
6.61683e-06
1.88363e-05
4.21374e-05
6.36079e-05
7.49517e-05
8.0836e-05
8.38478e-05
8.48333e-05
8.44681e-05
8.36074e-05
8.24082e-05
8.09764e-05
7.937e-05
7.70732e-05
7.35043e-05
6.8223e-05
6.13244e-05
5.36771e-05
4.60651e-05
3.90738e-05
3.33916e-05
2.98317e-05
3.07605e-05
3.06618e-05
2.80339e-05
2.67724e-05
2.50039e-05
2.45195e-05
2.74335e-05
3.72737e-05
5.21621e-05
3.60803e-05
8.5848e-06
5.58954e-07
3.46852e-07
6.52225e-06
1.82648e-05
4.08834e-05
6.39196e-05
7.72063e-05
8.39524e-05
8.69511e-05
8.74564e-05
8.65238e-05
8.51009e-05
8.39471e-05
8.31785e-05
8.23344e-05
8.1252e-05
7.96659e-05
7.7147e-05
7.25498e-05
6.4802e-05
5.50498e-05
4.4983e-05
3.5761e-05
2.90664e-05
2.81207e-05
2.75562e-05
2.49475e-05
2.43761e-05
2.38754e-05
2.39805e-05
2.70269e-05
3.64987e-05
5.1539e-05
3.75981e-05
8.83236e-06
6.00025e-07
3.61486e-07
6.48256e-06
1.84009e-05
4.21849e-05
6.60956e-05
7.92356e-05
8.58558e-05
8.85102e-05
8.85073e-05
8.7851e-05
8.693e-05
8.61664e-05
8.54477e-05
8.4771e-05
8.40315e-05
8.30041e-05
8.11825e-05
7.81408e-05
7.31959e-05
6.46877e-05
5.26766e-05
4.03296e-05
3.09492e-05
2.77182e-05
2.5119e-05
2.24848e-05
2.23963e-05
2.24396e-05
2.32436e-05
2.669e-05
3.62409e-05
5.14053e-05
3.83356e-05
8.95559e-06
6.28355e-07
3.85268e-07
6.57804e-06
1.8924e-05
4.35278e-05
6.6834e-05
7.91901e-05
8.57926e-05
8.87359e-05
8.96713e-05
8.92986e-05
8.81238e-05
8.70627e-05
8.64794e-05
8.63652e-05
8.64624e-05
8.62971e-05
8.52262e-05
8.25984e-05
7.79347e-05
7.09477e-05
6.10482e-05
4.81767e-05
3.59721e-05
2.96548e-05
2.42608e-05
2.05712e-05
2.03971e-05
2.10537e-05
2.24049e-05
2.62881e-05
3.59881e-05
5.14069e-05
3.8454e-05
8.99314e-06
6.421e-07
4.1375e-07
6.64635e-06
1.92992e-05
4.45734e-05
6.77541e-05
7.9719e-05
8.60196e-05
8.92565e-05
9.06391e-05
9.01955e-05
8.91594e-05
8.82357e-05
8.80137e-05
8.87461e-05
9.03122e-05
9.21152e-05
9.31424e-05
9.20266e-05
8.78218e-05
8.038e-05
6.94835e-05
5.57445e-05
4.14913e-05
3.23016e-05
2.50666e-05
2.00024e-05
1.89087e-05
1.98318e-05
2.16928e-05
2.60951e-05
3.63062e-05
5.18961e-05
3.80051e-05
8.93456e-06
6.45448e-07
4.52682e-07
6.89336e-06
2.04478e-05
4.72648e-05
6.9191e-05
8.03801e-05
8.67798e-05
8.985e-05
9.05764e-05
9.00127e-05
8.89151e-05
8.81179e-05
8.81182e-05
8.9223e-05
9.15111e-05
9.45862e-05
9.73791e-05
9.82281e-05
9.56759e-05
9.00368e-05
8.09571e-05
6.71074e-05
5.07795e-05
3.57423e-05
2.65278e-05
2.05747e-05
1.78778e-05
1.86018e-05
2.09322e-05
2.58901e-05
3.67417e-05
5.26294e-05
3.68851e-05
8.87175e-06
6.43392e-07
4.82252e-07
7.0585e-06
2.10787e-05
4.75513e-05
6.92053e-05
8.01776e-05
8.56363e-05
8.78224e-05
8.85049e-05
8.84263e-05
8.81981e-05
8.82054e-05
8.88885e-05
9.06269e-05
9.34542e-05
9.68917e-05
0.000100021
0.000101406
9.97554e-05
9.56526e-05
8.86155e-05
7.59428e-05
5.81819e-05
4.00323e-05
2.73823e-05
2.02627e-05
1.76e-05
1.79993e-05
2.04428e-05
2.60739e-05
3.78275e-05
5.36453e-05
3.56409e-05
8.63851e-06
6.16959e-07
4.87017e-07
7.12233e-06
2.13627e-05
4.84926e-05
6.89859e-05
7.83546e-05
8.30728e-05
8.54992e-05
8.67107e-05
8.7192e-05
8.74063e-05
8.77769e-05
8.87677e-05
9.08158e-05
9.40764e-05
9.82266e-05
0.000102201
0.000104488
0.000103912
0.000101199
9.55997e-05
8.37034e-05
6.54301e-05
4.56399e-05
2.96194e-05
2.04447e-05
1.71956e-05
1.74347e-05
2.01012e-05
2.6027e-05
3.81969e-05
5.39072e-05
3.44166e-05
8.46871e-06
5.8988e-07
4.81485e-07
7.18494e-06
2.18437e-05
4.86798e-05
6.79778e-05
7.68172e-05
8.13077e-05
8.38114e-05
8.52594e-05
8.61736e-05
8.67411e-05
8.71255e-05
8.77124e-05
8.91837e-05
9.20039e-05
9.6242e-05
0.000101093
0.000105011
0.000106505
0.000105907
0.000102129
9.12147e-05
7.25177e-05
5.09193e-05
3.25959e-05
2.17492e-05
1.73589e-05
1.70151e-05
1.95355e-05
2.57213e-05
3.84778e-05
5.4347e-05
3.35567e-05
8.34718e-06
5.68851e-07
4.54571e-07
7.12024e-06
2.14702e-05
4.79137e-05
6.71682e-05
7.56307e-05
7.97117e-05
8.19135e-05
8.33164e-05
8.43598e-05
8.51571e-05
8.56903e-05
8.6159e-05
8.71186e-05
8.92853e-05
9.31383e-05
9.8414e-05
0.000103903
0.000107902
0.000110096
0.000108814
9.95713e-05
8.09366e-05
5.71163e-05
3.61629e-05
2.33251e-05
1.77131e-05
1.68826e-05
1.9237e-05
2.53077e-05
3.81698e-05
5.43645e-05
3.2955e-05
8.32408e-06
5.62769e-07
4.357e-07
7.05927e-06
2.11673e-05
4.75058e-05
6.66586e-05
7.46257e-05
7.81294e-05
7.99552e-05
8.1472e-05
8.2965e-05
8.4357e-05
8.537e-05
8.59223e-05
8.64014e-05
8.77012e-05
9.05763e-05
9.53691e-05
0.000101588
0.000107813
0.000113158
0.000114894
0.000107661
8.98016e-05
6.5229e-05
4.3202e-05
2.75114e-05
1.9053e-05
1.66802e-05
1.83514e-05
2.4334e-05
3.75921e-05
5.4085e-05
3.31723e-05
8.35727e-06
5.68679e-07
4.33902e-07
7.08918e-06
2.13292e-05
4.77093e-05
6.62923e-05
7.35504e-05
7.6371e-05
7.78886e-05
7.96181e-05
8.17288e-05
8.39418e-05
8.57601e-05
8.6873e-05
8.74233e-05
8.80783e-05
8.99611e-05
9.38794e-05
9.98113e-05
0.000106983
0.000114688
0.000119973
0.000116174
9.90803e-05
7.58425e-05
5.1351e-05
3.22601e-05
2.16238e-05
1.74077e-05
1.80482e-05
2.34958e-05
3.63076e-05
5.37554e-05
3.33151e-05
8.40614e-06
5.87522e-07
4.27489e-07
7.11331e-06
2.15053e-05
4.81661e-05
6.59921e-05
7.22801e-05
7.41834e-05
7.52873e-05
7.71534e-05
7.9906e-05
8.29657e-05
8.55547e-05
8.71846e-05
8.78996e-05
8.83808e-05
8.95742e-05
9.24765e-05
9.75831e-05
0.000104673
0.000113598
0.000121984
0.000122654
0.000108113
8.34521e-05
5.62587e-05
3.57203e-05
2.37611e-05
1.83007e-05
1.81433e-05
2.33463e-05
3.68155e-05
5.446e-05
3.27204e-05
8.36197e-06
5.89533e-07
4.16567e-07
7.06288e-06
2.15813e-05
4.89695e-05
6.60783e-05
7.05723e-05
7.12153e-05
7.15988e-05
7.3564e-05
7.71892e-05
8.14844e-05
8.52823e-05
8.77788e-05
8.88306e-05
8.89114e-05
8.91818e-05
9.08758e-05
9.48053e-05
0.000101076
0.000109913
0.000119953
0.000124993
0.000115189
9.06047e-05
6.09464e-05
3.8376e-05
2.53599e-05
1.92973e-05
1.86293e-05
2.36769e-05
3.73907e-05
5.47012e-05
3.22821e-05
8.3252e-06
5.82181e-07
4.16282e-07
7.07575e-06
2.16078e-05
4.92412e-05
6.57677e-05
6.90119e-05
6.76511e-05
6.68966e-05
6.89824e-05
7.37787e-05
7.97535e-05
8.52317e-05
8.90177e-05
9.07232e-05
9.0797e-05
9.03376e-05
9.07336e-05
9.31582e-05
9.78725e-05
0.000104844
0.000113464
0.000121004
0.000119212
9.83559e-05
6.76001e-05
4.22695e-05
2.72629e-05
2.03694e-05
1.92485e-05
2.40151e-05
3.74001e-05
5.43841e-05
3.23286e-05
8.32589e-06
5.7756e-07
4.26076e-07
7.13326e-06
2.21116e-05
5.068e-05
6.52829e-05
6.65317e-05
6.34913e-05
6.21201e-05
6.45766e-05
7.06252e-05
7.83772e-05
8.55914e-05
9.06892e-05
9.31252e-05
9.33472e-05
9.25401e-05
9.22114e-05
9.32928e-05
9.62124e-05
0.000101255
0.000109574
0.000119904
0.000118619
0.000101362
7.67113e-05
5.06031e-05
3.12977e-05
2.1457e-05
1.91907e-05
2.34818e-05
3.6172e-05
5.36939e-05
3.27782e-05
8.38686e-06
5.83323e-07
4.4303e-07
7.22694e-06
2.28957e-05
5.19789e-05
6.47e-05
6.40572e-05
5.94256e-05
5.74074e-05
6.02209e-05
6.73979e-05
7.67581e-05
8.55313e-05
9.1796e-05
9.49206e-05
9.54176e-05
9.45746e-05
9.3925e-05
9.45946e-05
9.70318e-05
0.000101133
0.000107282
0.000116512
0.000116347
0.000102985
8.54344e-05
6.30397e-05
4.09324e-05
2.66588e-05
2.0713e-05
2.19835e-05
3.24977e-05
5.12886e-05
3.66858e-05
8.72046e-06
6.49712e-07
4.58659e-07
7.33317e-06
2.35667e-05
5.2726e-05
6.44753e-05
6.20485e-05
5.61928e-05
5.34781e-05
5.60434e-05
6.36297e-05
7.42465e-05
8.47125e-05
9.2472e-05
9.656e-05
9.74613e-05
9.66543e-05
9.58913e-05
9.62965e-05
9.81101e-05
0.000101855
0.000110704
0.000116741
0.000111343
0.000101663
8.88919e-05
7.2282e-05
5.24614e-05
3.39081e-05
2.39746e-05
2.24979e-05
2.92894e-05
4.81501e-05
3.78948e-05
8.78044e-06
7.09513e-07
4.82729e-07
7.51108e-06
2.42165e-05
5.32082e-05
6.40604e-05
6.06078e-05
5.41938e-05
5.07024e-05
5.23203e-05
5.94406e-05
7.07258e-05
8.2981e-05
9.28305e-05
9.86173e-05
0.000100526
0.000100058
9.91999e-05
9.95107e-05
0.000101523
0.000105026
0.000111024
0.000111444
0.000104587
9.65525e-05
8.55949e-05
7.13808e-05
5.45669e-05
3.86916e-05
2.76039e-05
2.46571e-05
3.35706e-05
5.54217e-05
3.4882e-05
8.64228e-06
7.1305e-07
4.89674e-07
7.56958e-06
2.45998e-05
5.39505e-05
6.29494e-05
5.98082e-05
5.3602e-05
4.91457e-05
4.91034e-05
5.45443e-05
6.50703e-05
7.82552e-05
9.01653e-05
9.81139e-05
0.000101618
0.000101978
0.000101258
0.000101458
0.000103638
0.000106701
0.000107633
0.000103695
9.61338e-05
8.66268e-05
7.52956e-05
6.25799e-05
4.93856e-05
3.78442e-05
3.09482e-05
3.17254e-05
4.38885e-05
5.83108e-05
3.29121e-05
8.37682e-06
6.62431e-07
4.88876e-07
7.65364e-06
2.49771e-05
5.30884e-05
6.29569e-05
6.06646e-05
5.4347e-05
4.86881e-05
4.65067e-05
4.92194e-05
5.76687e-05
7.04289e-05
8.38018e-05
9.42334e-05
9.99151e-05
0.000101477
0.000100903
0.000100285
0.000100956
0.000103153
0.000100776
9.31607e-05
8.47087e-05
7.52734e-05
6.53721e-05
5.55555e-05
4.64148e-05
3.91813e-05
3.60174e-05
3.98865e-05
5.32722e-05
6.10871e-05
2.96951e-05
8.05946e-06
5.79266e-07
4.78512e-07
7.63305e-06
2.48619e-05
5.33128e-05
6.3385e-05
6.15143e-05
5.5589e-05
4.96326e-05
4.60757e-05
4.60121e-05
5.06047e-05
6.13952e-05
7.59255e-05
8.84558e-05
9.64592e-05
9.9562e-05
9.96257e-05
9.94275e-05
0.000101703
9.94005e-05
9.1948e-05
8.52625e-05
7.73197e-05
6.82138e-05
5.9276e-05
5.14647e-05
4.52265e-05
4.13765e-05
4.16966e-05
4.84787e-05
6.11642e-05
6.21911e-05
2.88378e-05
7.93532e-06
5.36319e-07
4.7151e-07
7.65005e-06
2.50278e-05
5.30021e-05
6.33813e-05
6.26268e-05
5.77934e-05
5.21064e-05
4.71251e-05
4.48533e-05
4.68123e-05
5.3111e-05
6.47342e-05
7.91347e-05
9.00808e-05
9.58534e-05
9.75223e-05
9.76752e-05
9.95572e-05
9.64601e-05
8.8809e-05
8.20884e-05
7.37093e-05
6.42761e-05
5.57431e-05
4.92856e-05
4.51659e-05
4.37214e-05
4.61867e-05
5.44246e-05
6.52625e-05
6.30807e-05
2.94543e-05
8.0589e-06
5.28933e-07
4.52353e-07
7.57777e-06
2.46263e-05
5.21036e-05
6.33184e-05
6.37934e-05
6.00189e-05
5.45782e-05
4.92581e-05
4.52941e-05
4.40633e-05
4.71871e-05
5.47512e-05
6.62567e-05
7.95426e-05
8.90065e-05
9.3215e-05
9.47321e-05
9.71616e-05
9.47257e-05
8.80324e-05
8.19596e-05
7.36994e-05
6.38301e-05
5.47082e-05
4.85074e-05
4.52951e-05
4.49112e-05
4.85018e-05
5.70525e-05
6.68569e-05
6.44459e-05
3.04295e-05
8.16557e-06
5.32389e-07
4.29071e-07
7.49554e-06
2.4289e-05
5.14734e-05
6.36223e-05
6.54958e-05
6.32479e-05
5.89833e-05
5.36105e-05
4.81475e-05
4.4118e-05
4.31325e-05
4.65141e-05
5.49051e-05
6.60167e-05
7.75602e-05
8.62087e-05
9.20749e-05
9.24426e-05
8.89795e-05
8.67871e-05
8.30259e-05
7.58219e-05
6.59881e-05
5.6232e-05
4.87133e-05
4.45767e-05
4.4346e-05
4.85323e-05
5.72229e-05
6.73536e-05
6.57331e-05
3.16804e-05
8.43567e-06
5.49956e-07
4.02157e-07
7.36592e-06
2.36502e-05
5.0379e-05
6.37695e-05
6.70765e-05
6.61759e-05
6.31291e-05
5.88661e-05
5.35432e-05
4.79493e-05
4.35969e-05
4.22626e-05
4.52839e-05
5.35721e-05
6.45419e-05
7.47329e-05
8.28902e-05
8.59328e-05
8.54878e-05
8.52725e-05
8.3652e-05
7.88055e-05
7.00109e-05
5.96122e-05
5.09692e-05
4.55196e-05
4.38197e-05
4.67107e-05
5.50949e-05
6.59365e-05
6.66045e-05
3.36662e-05
8.73287e-06
5.80881e-07
3.76784e-07
7.24952e-06
2.30598e-05
4.91994e-05
6.36012e-05
6.82037e-05
6.86093e-05
6.68642e-05
6.40403e-05
5.95697e-05
5.37989e-05
4.79579e-05
4.31543e-05
4.12525e-05
4.34449e-05
5.06142e-05
6.12252e-05
7.08505e-05
7.69078e-05
7.99337e-05
8.15214e-05
8.19435e-05
8.0152e-05
7.43858e-05
6.44655e-05
5.44652e-05
4.7401e-05
4.39316e-05
4.49608e-05
5.20617e-05
6.34403e-05
6.73026e-05
3.61529e-05
9.07485e-06
6.2123e-07
3.52975e-07