/*--------------------------------*- C++ -*----------------------------------*\
| =========                 |                                                 |
| \\      /  F ield         | OpenFOAM: The Open Source CFD Toolbox           |
|  \\    /   O peration     | Version:  2.0.x                                 |
|   \\  /    A nd           | Web:      www.OpenFOAM.org                      |
|    \\/     M anipulation  |                                                 |
\*---------------------------------------------------------------------------*/
FoamFile
{
    version     2.0;
    format      ascii;
    class       volScalarField;
    location    "700";
    object      k;
}
// * * * * * * * * * * * * * * * * * * * * * * * * * * * * * * * * * * * * * //

dimensions      [0 2 -2 0 0 0 0];

internalField   nonuniform List<scalar> 
78750
(
0.000119893
0.000427818
0.00051112
0.000533533
0.000548845
0.000570753
0.000594983
0.000621136
0.000642001
0.000661091
0.000677982
0.000692885
0.000705938
0.000717179
0.000726479
0.000734289
0.000740671
0.000745655
0.000749099
0.000751564
0.000751956
0.000753222
0.00075393
0.000753019
0.000751389
0.00074717
0.000741052
0.000733456
0.000723926
0.000713259
0.000701153
0.000686434
0.000667994
0.000595888
0.000154247
0.000102017
0.000295641
0.000360736
0.000372842
0.000404949
0.000482504
0.000557575
0.000619592
0.00067611
0.000726234
0.000769453
0.000806073
0.000836272
0.000860504
0.000879165
0.000892716
0.000901552
0.00090626
0.000906768
0.000905146
0.000899311
0.000887764
0.000872292
0.000853833
0.000833773
0.000813693
0.000794179
0.000774428
0.000753655
0.000732195
0.000710507
0.000686471
0.000658044
0.000574635
0.000325779
2.34307e-05
0.000116117
0.000186691
0.00026403
0.000363305
0.000490135
0.000598369
0.000683998
0.000751754
0.000806327
0.000849709
0.000883682
0.0009094
0.000927975
0.000940246
0.000946947
0.000948581
0.000946669
0.0009395
0.000928414
0.000914252
0.000897418
0.000877981
0.00085627
0.000831961
0.000805752
0.000778902
0.000749849
0.000717676
0.000689854
0.000667668
0.000649362
0.000610511
0.000532005
0.000369145
1.89013e-05
0.000172467
0.0003288
0.00048948
0.000634267
0.000723423
0.000796378
0.000856698
0.000902829
0.000936667
0.000962082
0.000981303
0.000995596
0.00100566
0.00101179
0.00101412
0.00101303
0.00100721
0.000997383
0.000983664
0.000966422
0.000945918
0.000922012
0.000894446
0.000863341
0.000829435
0.000793556
0.000753947
0.000712392
0.000674286
0.000640462
0.000611049
0.000570482
0.000504183
0.000385282
1.99053e-05
0.00021489
0.000398632
0.000549478
0.00066383
0.00075223
0.000821016
0.000875671
0.00092026
0.000957321
0.000987969
0.00101268
0.00103176
0.0010453
0.00105315
0.00105527
0.00105289
0.00104447
0.00103132
0.00101379
0.000992415
0.000967558
0.000939274
0.000907572
0.000872637
0.000834966
0.000795192
0.000751923
0.000705152
0.000661392
0.000621316
0.000584044
0.000539785
0.000480883
0.000382683
4.39102e-05
0.000283635
0.00049692
0.000664298
0.000783948
0.000867768
0.000929982
0.000978562
0.00101764
0.00104929
0.00107456
0.00109389
0.00110756
0.00111581
0.00111885
0.00111726
0.00111021
0.00109853
0.00108218
0.00106134
0.0010365
0.00100784
0.000975354
0.000939183
0.00089942
0.000856374
0.000810603
0.000761003
0.000708947
0.000660052
0.000613453
0.00056857
0.000520562
0.000466363
0.000383566
5.68436e-05
0.000317847
0.00053692
0.000697056
0.000807537
0.000886599
0.00094768
0.000997748
0.00103986
0.00107522
0.00110446
0.00112786
0.00114533
0.00115667
0.00116196
0.00116151
0.00115573
0.00114364
0.00112601
0.00110331
0.00107609
0.00104419
0.00100766
0.000967449
0.000923638
0.000876687
0.000827422
0.000774621
0.000718144
0.000663202
0.000610442
0.00055881
0.000506962
0.000455738
0.000383095
8.50976e-05
0.000381112
0.000624661
0.000789957
0.000895983
0.000969419
0.00102654
0.00107412
0.00111492
0.00114985
0.00117879
0.00120132
0.00121725
0.00122668
0.0012296
0.00122689
0.00121704
0.00120128
0.00118026
0.00115488
0.00112529
0.00109123
0.00105252
0.00100912
0.000961122
0.000908567
0.000852678
0.000792067
0.00073061
0.000672244
0.000613956
0.000556354
0.000500977
0.000450535
0.000383677
0.000100838
0.000415202
0.000660475
0.000815436
0.000913334
0.00098303
0.00103953
0.0010884
0.00113162
0.00116995
0.00120303
0.00123009
0.00125043
0.00126346
0.00126893
0.00126735
0.00125844
0.00124314
0.00122235
0.00119682
0.00116672
0.00113198
0.00109243
0.00104806
0.000998722
0.000943735
0.000882034
0.000813531
0.000745389
0.000680229
0.000615171
0.000552977
0.000496893
0.000447103
0.000382227
0.000127537
0.000475133
0.000734458
0.000886949
0.00097661
0.00103832
0.00108864
0.00113376
0.00117593
0.00121509
0.00125054
0.00128062
0.00130358
0.00131836
0.00132481
0.00132357
0.0013149
0.00129957
0.00127841
0.00125201
0.00122093
0.0011853
0.00114516
0.00110043
0.00105073
0.000995085
0.000931565
0.00085865
0.000781032
0.000704605
0.000627496
0.000555554
0.000496199
0.000445258
0.00037893
0.000147817
0.000514922
0.000770536
0.000910367
0.000990596
0.00104665
0.00109325
0.0011373
0.00117958
0.00122139
0.00126256
0.00129897
0.00132755
0.00134712
0.00135742
0.00135912
0.00135379
0.00134093
0.00132126
0.00129541
0.00126433
0.00122853
0.00118826
0.00114351
0.00109371
0.00103761
0.00097374
0.00090284
0.000824655
0.000734579
0.000642072
0.000560633
0.000497496
0.000444299
0.000376219
0.000178743
0.000573084
0.000834222
0.000966953
0.00103711
0.00108253
0.00111799
0.00114938
0.00118693
0.00123206
0.0012784
0.00132186
0.00135764
0.00138324
0.00139809
0.00140403
0.00140194
0.00139191
0.00137435
0.00134971
0.00131909
0.00128344
0.00124319
0.00119837
0.00114852
0.00109265
0.00102962
0.000959108
0.000878099
0.000778656
0.000665968
0.000570466
0.000501657
0.000445097
0.000374213
0.000207222
0.000616255
0.000868273
0.000989255
0.00105244
0.00109178
0.00112114
0.00114932
0.00118606
0.00123027
0.00127815
0.00132272
0.00136075
0.00139146
0.00141518
0.00142866
0.00143198
0.00142642
0.0014126
0.00139099
0.00136256
0.00132836
0.00128916
0.00124522
0.00119632
0.00114164
0.00108082
0.00101153
0.000926678
0.000819773
0.000695937
0.000584884
0.000509173
0.000448296
0.000373238
0.000243011
0.000670156
0.000920274
0.00103473
0.0010924
0.0011241
0.00113903
0.00114876
0.00116951
0.00120961
0.00125959
0.0013103
0.00135516
0.00139116
0.00141892
0.00143867
0.00145095
0.00145455
0.00144802
0.00143123
0.00140638
0.00137472
0.00133742
0.00129504
0.00124752
0.00119406
0.00113367
0.00106291
0.000974044
0.000860664
0.000727205
0.000601359
0.000518616
0.000453041
0.000372972
0.000267201
0.000697045
0.000941081
0.0010542
0.00111321
0.00114559
0.0011563
0.00115407
0.00115725
0.00117307
0.00121341
0.00126434
0.00131647
0.00136392
0.00140331
0.00143268
0.00145131
0.0014603
0.00146052
0.00145295
0.00143563
0.00140923
0.00137599
0.00133672
0.00129162
0.00124055
0.00118127
0.00110834
0.00101539
0.000897387
0.000757418
0.000621905
0.000531055
0.000459791
0.00037323
0.000285079
0.000717265
0.000969549
0.00108703
0.0011497
0.00118453
0.00119413
0.001184
0.0011646
0.00115771
0.00116612
0.00120053
0.00124854
0.00130158
0.00135131
0.00139347
0.00142585
0.00144745
0.001458
0.00145786
0.00144828
0.00143045
0.00140412
0.00137004
0.0013288
0.00128023
0.00122185
0.00114811
0.00105277
0.000931125
0.000786271
0.000643971
0.000545626
0.000468349
0.000374559
0.000288402
0.000718804
0.000976759
0.00110162
0.001171
0.00121271
0.0012293
0.00122469
0.00120112
0.00116928
0.00115071
0.00115156
0.00117527
0.00122181
0.00127385
0.00132454
0.00136835
0.00140295
0.00142702
0.00144004
0.00144195
0.0014332
0.0014147
0.00138778
0.00135276
0.00130871
0.00125252
0.00117949
0.00108401
0.000960916
0.000813274
0.000666665
0.00056299
0.000479638
0.000378209
0.00028843
0.000718971
0.000984116
0.00112173
0.00119835
0.00124582
0.00127016
0.00127278
0.00125614
0.00122322
0.00118192
0.00114842
0.00113827
0.00114673
0.00117943
0.00122899
0.00127928
0.00132517
0.00136265
0.00138997
0.00140612
0.00141072
0.00140429
0.00138728
0.00136014
0.00132208
0.0012703
0.00120033
0.00110682
0.000984675
0.000836696
0.000688263
0.000581443
0.000492812
0.000383206
0.0002839
0.000716374
0.000986249
0.00112979
0.00121295
0.00126695
0.00129958
0.00131104
0.00130577
0.00128384
0.00124737
0.00120054
0.00115373
0.00112474
0.00112091
0.00113385
0.00116987
0.00121834
0.00126508
0.00130572
0.00133689
0.00135697
0.00136531
0.00136178
0.00134607
0.0013172
0.00127239
0.00120889
0.00112107
0.00100284
0.000857548
0.000709498
0.000601206
0.000508214
0.000390521
0.000269346
0.000703832
0.000985926
0.00113912
0.00122855
0.00128789
0.00132627
0.00134643
0.00134897
0.00133701
0.00131167
0.00127457
0.00122727
0.00117393
0.00112513
0.00109603
0.00109057
0.0011042
0.00114025
0.0011867
0.00123035
0.00126654
0.00129232
0.0013059
0.00130606
0.00129173
0.00126029
0.00120657
0.00112544
0.00101485
0.0008749
0.000729272
0.00062089
0.000524712
0.000399806
0.00024736
0.000687169
0.000980175
0.0011411
0.00123715
0.00130206
0.00134668
0.00137406
0.0013842
0.0013808
0.00136402
0.001336
0.00129847
0.00125245
0.00119928
0.00114328
0.00109298
0.00106014
0.00104937
0.00106268
0.00109876
0.00114206
0.0011827
0.00121445
0.00123371
0.00123833
0.00122551
0.0011882
0.00112176
0.00101943
0.000888292
0.00074789
0.000640962
0.000542579
0.000411252
0.000230294
0.000682388
0.0009807
0.00115071
0.00125224
0.00132086
0.00136873
0.00139988
0.0014159
0.00141735
0.00140574
0.00138278
0.00135075
0.00131151
0.00126608
0.00121506
0.00116001
0.00110356
0.001052
0.00101596
0.00100091
0.00101621
0.00105449
0.00109546
0.00113179
0.00115761
0.00116607
0.00115165
0.00110358
0.00101811
0.000898144
0.000764879
0.000660557
0.000561202
0.000426413
0.000227499
0.000682862
0.000991662
0.00116833
0.00127362
0.00134456
0.0013945
0.00142767
0.00144576
0.00144962
0.00144035
0.00141944
0.00138955
0.0013529
0.00131085
0.0012641
0.00121335
0.00115983
0.00110368
0.00104758
0.000998631
0.000967352
0.000962329
0.000981316
0.00101918
0.00105921
0.00108829
0.00109552
0.0010731
0.00100685
0.000900788
0.000779033
0.000679369
0.000580684
0.000445839
0.000235194
0.000701341
0.00101957
0.00120001
0.00130616
0.00137717
0.00142696
0.0014597
0.00147692
0.00147944
0.00146934
0.00144709
0.00141728
0.0013828
0.00134441
0.0013012
0.00125262
0.00119959
0.00114338
0.0010846
0.00102552
0.000972262
0.000936998
0.000926033
0.000935513
0.000967034
0.00100479
0.00103057
0.00102869
0.000986235
0.000899855
0.000790195
0.000696766
0.000600556
0.000467435
0.000262233
0.00073663
0.00105842
0.00123689
0.00134112
0.00141096
0.0014598
0.00149125
0.00150654
0.00150647
0.00149426
0.00147185
0.0014437
0.00141147
0.00137552
0.00133523
0.00128943
0.0012375
0.00118018
0.00111785
0.00105228
0.000988024
0.000936301
0.000906311
0.00089861
0.00090926
0.000936521
0.000967864
0.00098058
0.000959769
0.000892286
0.000797257
0.000711475
0.000618783
0.000485189
0.000299022
0.000774738
0.00109267
0.00126754
0.00137032
0.00144001
0.00148888
0.00151995
0.00153418
0.0015331
0.00151979
0.00149854
0.00147313
0.00144514
0.0014135
0.00137649
0.00133284
0.00128169
0.00122324
0.00115754
0.00108588
0.00101233
0.00094688
0.000901759
0.000879627
0.000878908
0.000892723
0.000917264
0.000936937
0.000930158
0.00088005
0.000800327
0.000723335
0.00063443
0.000495453
0.000333721
0.000801795
0.00111421
0.00128789
0.00139151
0.00146301
0.0015138
0.00154649
0.00156195
0.00156175
0.00154921
0.00152882
0.00150549
0.00148301
0.00145847
0.00142729
0.00138755
0.00133739
0.00127635
0.00120588
0.00112829
0.0010465
0.000968046
0.000906367
0.000871099
0.000859503
0.000865242
0.000883117
0.000902614
0.000903174
0.00086776
0.000800124
0.000731594
0.000645264
0.000496741
0.000354974
0.000806259
0.00111786
0.00129649
0.00140439
0.00147973
0.00153442
0.00157125
0.00159124
0.00159542
0.00158673
0.00156798
0.00154334
0.00151779
0.00149307
0.00146624
0.00143315
0.00139061
0.00133627
0.00126794
0.00118537
0.00109483
0.00100464
0.000926435
0.000874538
0.000849858
0.000847846
0.000858507
0.00087447
0.000880015
0.00085519
0.000799896
0.000737577
0.000652752
0.000494737
0.000356276
0.000804259
0.00111652
0.00129692
0.0014099
0.00148999
0.00154967
0.00159223
0.00161912
0.00163077
0.00162991
0.00161708
0.00159382
0.00156289
0.00152863
0.00149438
0.00145769
0.00141642
0.00136776
0.0013083
0.00123456
0.00114591
0.00105152
0.000962047
0.000892798
0.000851967
0.000837765
0.000842103
0.000854843
0.000860845
0.000843879
0.000798359
0.000741348
0.000656772
0.000490945
0.000341543
0.000781486
0.00110242
0.0012931
0.00141121
0.00149756
0.00156237
0.00161025
0.00164366
0.00166442
0.00167352
0.00167299
0.00166202
0.00164007
0.00160743
0.00156622
0.00151997
0.00147137
0.00141781
0.00135698
0.00128605
0.00120314
0.00111029
0.00101334
0.00092725
0.000868092
0.000839647
0.000834089
0.000841424
0.0008469
0.000833865
0.000796258
0.000743997
0.000660027
0.000492042
0.000307462
0.000746365
0.00107765
0.00128172
0.00141027
0.00150155
0.00157076
0.00162342
0.00166218
0.00168888
0.0017058
0.0017142
0.00171507
0.0017071
0.00168828
0.00165669
0.0016124
0.00155776
0.00149635
0.00142977
0.00135686
0.00127538
0.0011834
0.00108102
0.000979724
0.000899553
0.000849289
0.000832857
0.000834344
0.000838694
0.00082788
0.000794253
0.000746306
0.000663685
0.000500743
0.000271488
0.000714233
0.0010556
0.0012736
0.00140837
0.00150385
0.00157717
0.00163418
0.00167781
0.0017102
0.00173372
0.00175086
0.00176265
0.00176841
0.00176605
0.00175143
0.00172168
0.00167532
0.00161471
0.00154377
0.00146503
0.00137879
0.00128227
0.00117273
0.0010581
0.000956209
0.000879203
0.000839183
0.000832577
0.000832866
0.000824086
0.000795388
0.000750043
0.000670058
0.000520066
0.000254959
0.000704957
0.00105129
0.0012739
0.00141519
0.0015139
0.00158898
0.00164734
0.00169244
0.00172711
0.00175424
0.00177786
0.00179978
0.00181963
0.00183321
0.0018344
0.00182163
0.00178753
0.00173271
0.00166148
0.00157807
0.0014853
0.00138228
0.00126709
0.00114751
0.00103334
0.000932414
0.000864441
0.000837816
0.000834448
0.000825369
0.000798662
0.000755682
0.000679781
0.000549095
0.00025651
0.0007089
0.00106776
0.00129664
0.00143899
0.00153766
0.00161199
0.0016691
0.00171267
0.00174659
0.00177451
0.00180462
0.00183863
0.0018776
0.00191389
0.00193691
0.0019366
0.00191717
0.00186712
0.00179248
0.00169863
0.00159094
0.00147115
0.00134513
0.0012215
0.00109806
0.000984463
0.000900445
0.000856601
0.000840755
0.000828389
0.000803448
0.000763236
0.00069309
0.000583501
0.000290562
0.000763955
0.00112238
0.00133828
0.00147181
0.00156526
0.00163563
0.00168819
0.00172572
0.00175094
0.00177628
0.00181062
0.00186631
0.00194016
0.00201446
0.00207493
0.00210382
0.00209646
0.00205401
0.00197985
0.00188023
0.00176252
0.00163143
0.0014947
0.00135441
0.00120125
0.00104726
0.000931939
0.000873757
0.000850851
0.000834824
0.000809439
0.000771263
0.000706406
0.000607799
0.000364269
0.000840217
0.0011783
0.00137762
0.00150164
0.00158939
0.00165455
0.00170005
0.00172775
0.00174674
0.00176651
0.00180489
0.00187159
0.00196227
0.00206063
0.00213609
0.00217806
0.00218323
0.0021534
0.0020866
0.00199195
0.00188021
0.00175884
0.00163046
0.00148747
0.00132265
0.00114642
0.000994408
0.000903832
0.000866172
0.000845704
0.00081963
0.000782076
0.000717543
0.000605753
0.000487375
0.00092252
0.001224
0.0014029
0.0015184
0.00160239
0.00166302
0.0017014
0.00171851
0.00171881
0.00172242
0.00176246
0.0018449
0.00195772
0.00206254
0.00213965
0.00218265
0.00219032
0.00216617
0.00211503
0.0020429
0.00195227
0.00184729
0.00172652
0.00158442
0.0014181
0.00123564
0.00106704
0.00095192
0.000894987
0.00086467
0.000833797
0.000790776
0.000717299
0.000580165
0.000567056
0.000938658
0.00122666
0.00140374
0.00151924
0.00160338
0.00166389
0.00170147
0.00171161
0.00170248
0.00168894
0.00168327
0.00172258
0.00180944
0.00191387
0.00200577
0.00207773
0.00212011
0.00212864
0.00210774
0.0020597
0.00199138
0.00190565
0.00179579
0.00165743
0.00149231
0.00130969
0.00113586
0.0010066
0.000932167
0.000888399
0.000848644
0.000797903
0.000708745
0.000514948
0.000565849
0.000923201
0.00120609
0.00138123
0.0015001
0.00159173
0.00166101
0.00170637
0.00172621
0.00171747
0.00169166
0.00166319
0.00164495
0.00163439
0.00164774
0.00171337
0.00181201
0.00189517
0.00195674
0.00198577
0.00198845
0.00196044
0.00190485
0.00181954
0.00169937
0.00154677
0.00137197
0.0011994
0.00106241
0.000974011
0.000915967
0.000865703
0.000803153
0.000691098
0.000456252
0.000494902
0.000845986
0.00113885
0.00132555
0.00145489
0.00155716
0.00163962
0.00170263
0.00174504
0.00176693
0.00176251
0.00172878
0.00167798
0.00162544
0.00158124
0.00155296
0.00154346
0.00157265
0.00163424
0.00171182
0.00177044
0.00179645
0.00179432
0.00175815
0.00168104
0.00155853
0.00141041
0.00124992
0.00111089
0.00101003
0.000939042
0.000878785
0.000804877
0.000674175
0.000429819
0.000390688
0.000778693
0.00108305
0.00127836
0.0014128
0.00151908
0.00160798
0.00168276
0.00174404
0.00178985
0.00181938
0.00182599
0.00180833
0.00176296
0.00169458
0.00161415
0.00153754
0.00147508
0.00143143
0.00141402
0.0014402
0.00149124
0.00154483
0.00157751
0.00157899
0.00153125
0.00142107
0.0012875
0.00115332
0.00104611
0.000963484
0.000893964
0.000812671
0.000675723
0.000432633
0.000326901
0.000722667
0.00103197
0.00123913
0.00138311
0.00149754
0.00159506
0.00167657
0.00174094
0.00179009
0.00182417
0.00184495
0.00185136
0.0018438
0.0018171
0.00176741
0.00169389
0.00160178
0.00150256
0.00141146
0.00134093
0.00129707
0.00128742
0.00132431
0.00138524
0.001421
0.0013973
0.00129997
0.00118786
0.00107746
0.000986722
0.000910566
0.000823475
0.000680288
0.000454607
0.000306481
0.000708342
0.00101937
0.00123063
0.00137823
0.00149535
0.00159454
0.00168062
0.00175438
0.00181386
0.00185676
0.00188181
0.00188918
0.00188074
0.00185769
0.00182092
0.0017698
0.00170251
0.00161812
0.00152015
0.00141607
0.00131947
0.00124993
0.00122261
0.00123482
0.00127139
0.00130021
0.00127995
0.00119423
0.00109872
0.00100675
0.000926578
0.000837633
0.000698455
0.00049624
0.000291801
0.000679635
0.000991632
0.0012157
0.00137242
0.00149418
0.00159877
0.00169014
0.00176907
0.00183563
0.00188889
0.0019267
0.00194787
0.00195131
0.00193663
0.00190367
0.00185333
0.00178658
0.00170432
0.00160809
0.00150109
0.00138801
0.0012832
0.00121131
0.00118309
0.00119039
0.00121272
0.00121576
0.00118247
0.00110466
0.00101987
0.000940169
0.000852839
0.000719516
0.000533221
0.000291776
0.000676251
0.000988539
0.00121434
0.00137505
0.00150201
0.00161084
0.00170615
0.00178936
0.00186028
0.00191793
0.00196087
0.00198791
0.00199878
0.00199335
0.00197053
0.00192983
0.0018713
0.00179478
0.00170065
0.0015906
0.00146697
0.00133971
0.00123415
0.00117267
0.00115292
0.00115933
0.00116866
0.00115576
0.00110363
0.00102988
0.000954529
0.000870466
0.000744411
0.000572527
0.000304117
0.000684194
0.000996778
0.00122362
0.00138665
0.0015179
0.00163336
0.00173413
0.00182325
0.00190024
0.00196442
0.00201479
0.00204953
0.0020677
0.00206823
0.00205147
0.00201435
0.0019577
0.00188205
0.0017881
0.00167566
0.00154421
0.00140041
0.00126873
0.00117757
0.00113274
0.00112542
0.00113285
0.00113049
0.00109605
0.00103521
0.000966357
0.000886837
0.000767311
0.000599679
0.000324195
0.000704738
0.0010134
0.00123412
0.0013948
0.00152856
0.0016512
0.00175985
0.00185433
0.00193508
0.00200382
0.00206094
0.00210513
0.00213517
0.0021493
0.00214536
0.00212034
0.0020722
0.00200057
0.00190565
0.00178847
0.00164909
0.00149105
0.00133435
0.00121083
0.00113578
0.00110861
0.00110964
0.00111039
0.0010886
0.0010383
0.000976409
0.000902039
0.000787133
0.00061287
0.000348246
0.000719122
0.00102171
0.00124004
0.00140037
0.00153738
0.00166577
0.00178077
0.0018839
0.00197532
0.00205389
0.00211941
0.00217166
0.00221037
0.00223471
0.00224265
0.00223237
0.00219826
0.00213751
0.00204714
0.00192543
0.00177138
0.001593
0.00141178
0.001257
0.00115134
0.00110244
0.00109369
0.00109519
0.00108114
0.00103974
0.000984127
0.000913792
0.000800415
0.000616114
0.000381147
0.00074614
0.00103577
0.00124376
0.00140105
0.00153881
0.00166974
0.00179101
0.00189963
0.00199427
0.00207505
0.00214274
0.00219699
0.0022372
0.00226304
0.00227333
0.00226677
0.00224071
0.00219277
0.00212
0.00201955
0.0018857
0.00171322
0.0015101
0.0013177
0.00118159
0.00110772
0.00108685
0.00108583
0.00107505
0.0010408
0.000991296
0.000925097
0.000812289
0.000614201
0.000406165
0.000751432
0.00103602
0.00124074
0.00139532
0.00153394
0.00166768
0.00179168
0.00190364
0.00200398
0.00209325
0.00216877
0.00222916
0.0022741
0.00230287
0.00231361
0.00230511
0.00227581
0.0022247
0.00215081
0.00205304
0.00192826
0.00177051
0.0015757
0.00136373
0.00119986
0.0011116
0.00108313
0.00108026
0.0010711
0.00104105
0.000995522
0.000930693
0.000811863
0.000588956
0.000410216
0.000752666
0.00102791
0.00122253
0.00137201
0.00150972
0.00164665
0.00177856
0.00189849
0.00200376
0.00209465
0.00217179
0.00223647
0.00228816
0.0023238
0.00234196
0.00233999
0.00231628
0.00226947
0.00219909
0.00210444
0.00198365
0.0018314
0.00164229
0.00142531
0.00122683
0.00111736
0.00108109
0.00107649
0.00106835
0.00104144
0.000998753
0.000934379
0.0008091
0.000563055
0.000405561
0.000740389
0.00101112
0.00120137
0.00134686
0.00148088
0.00161571
0.00174821
0.00187235
0.00198539
0.00208501
0.00216943
0.00223773
0.00229231
0.0023306
0.00235162
0.00235404
0.00233624
0.00229672
0.0022341
0.00214721
0.00203422
0.00189009
0.00170848
0.00149317
0.00128065
0.00113969
0.0010843
0.00107397
0.0010668
0.00104205
0.00100114
0.00093629
0.000804295
0.000542933
0.000382824
0.000721336
0.000990822
0.00117625
0.00131614
0.00144479
0.00157701
0.00171056
0.00183884
0.00195727
0.00206356
0.00215618
0.00223447
0.00229774
0.00234425
0.00237295
0.00238219
0.00237075
0.00233707
0.00227996
0.00219907
0.00209277
0.00195579
0.0017797
0.00156244
0.00133357
0.001165
0.00109381
0.00107604
0.00106659
0.00104319
0.00100316
0.00093773
0.000801422
0.000537107
0.000366881
0.000711443
0.000977988
0.00115872
0.00129346
0.00141662
0.00154482
0.0016774
0.00180898
0.00193292
0.00204586
0.00214538
0.00223039
0.00230009
0.00235547
0.00239215
0.0024081
0.00240364
0.00237739
0.00232844
0.00225675
0.0021611
0.00203659
0.00187427
0.00166767
0.00143057
0.00121585
0.00110683
0.00107723
0.00106738
0.0010454
0.00100637
0.00094065
0.000802437
0.000542752
0.000365374
0.0007103
0.000973236
0.00114781
0.00127665
0.00139446
0.00151776
0.00164818
0.00178075
0.00190732
0.0020243
0.00212936
0.00222142
0.00229924
0.00236101
0.00240723
0.00243499
0.00243992
0.0024213
0.00237761
0.00231173
0.00222443
0.00211219
0.00196818
0.00178522
0.00156143
0.00132702
0.00115963
0.00109341
0.00107194
0.00104848
0.00101008
0.000945361
0.000809716
0.000560802
0.000359979
0.000707502
0.000966923
0.00113466
0.00125664
0.00136839
0.00148682
0.00161492
0.00174832
0.00187802
0.00199821
0.00210605
0.00220124
0.00228339
0.00235335
0.00240781
0.00244411
0.00245876
0.0024485
0.00241196
0.00235168
0.00227013
0.0021659
0.0020329
0.00186276
0.00165024
0.00141406
0.00121652
0.00111984
0.00108359
0.00105487
0.00101497
0.000949751
0.000813577
0.000562738
0.000350754
0.000707048
0.000966227
0.00112779
0.00124269
0.00134731
0.00145944
0.00158418
0.00171831
0.00185249
0.00197769
0.00208997
0.00218889
0.00227549
0.00234745
0.0024046
0.00244547
0.00246731
0.00246506
0.00243678
0.00238237
0.00230533
0.00220586
0.0020786
0.00191417
0.00170703
0.00147487
0.00126855
0.00114621
0.00109424
0.00106071
0.00101973
0.000953309
0.000813609
0.000555749
0.000350519
0.000710996
0.000966966
0.00112214
0.0012308
0.00132918
0.00143567
0.00155761
0.00169313
0.0018329
0.0019646
0.00208291
0.0021865
0.00227626
0.00235331
0.00241623
0.00246176
0.00248889
0.00249234
0.00247007
0.00242007
0.00234556
0.00224821
0.00212358
0.00196008
0.00175004
0.00151395
0.00130864
0.00117955
0.00111385
0.0010688
0.00102262
0.000954153
0.000813566
0.000551334
0.000358804
0.000725118
0.000975633
0.00112141
0.00122222
0.00131368
0.0014136
0.00153087
0.00166542
0.00180847
0.00194635
0.00207117
0.00218127
0.00227724
0.00236036
0.00243146
0.00249081
0.00252991
0.00254302
0.00253007
0.00248919
0.00242301
0.00233187
0.00220928
0.00204539
0.00183151
0.00157592
0.00133626
0.00118693
0.00112303
0.00108031
0.00103222
0.000960571
0.000816471
0.000556808
0.000373141
0.000737393
0.000980487
0.00111907
0.00121376
0.00129831
0.00138976
0.00149945
0.00162979
0.00177305
0.00191514
0.00204459
0.00215971
0.00226181
0.00235216
0.00243105
0.00249748
0.00254877
0.00258208
0.00259068
0.00257295
0.00252784
0.00245625
0.00235185
0.00220614
0.00201091
0.00176041
0.00148311
0.00125961
0.00114362
0.00108723
0.00103985
0.000971015
0.000835357
0.000620303
0.000386361
0.000745752
0.000982631
0.00111574
0.00120511
0.00128295
0.00136485
0.00146414
0.00158715
0.00172924
0.00187581
0.0020113
0.0021312
0.00223674
0.00233009
0.00241293
0.00248537
0.00254494
0.00258855
0.00261362
0.00261808
0.00260137
0.0025576
0.00248166
0.00236603
0.00220263
0.0019823
0.00170671
0.00142722
0.00122805
0.00111985
0.00105485
0.000987793
0.000869491
0.000677646
0.000406725
0.000752376
0.000983148
0.00111346
0.0011996
0.00127221
0.0013445
0.00142977
0.00153914
0.00167445
0.00182314
0.00196719
0.00209497
0.00220663
0.00230398
0.00238893
0.00246198
0.00252255
0.00256963
0.00260194
0.00261784
0.0026158
0.00259288
0.00254246
0.00245758
0.00232892
0.00214419
0.00189369
0.00159777
0.00134082
0.00118131
0.00109032
0.00100867
0.000883744
0.000681144
0.000412604
0.000752348
0.00098192
0.00110987
0.0011944
0.0012637
0.00132802
0.00139788
0.00148794
0.00160757
0.00175048
0.0018981
0.00203259
0.00215059
0.00225296
0.00234112
0.00241507
0.00247513
0.00252169
0.00255523
0.00257605
0.00258326
0.00257189
0.00253326
0.0024571
0.00233562
0.00216356
0.00193331
0.00166043
0.00140806
0.00123668
0.00112797
0.00102852
0.000883099
0.000632839
0.000411933
0.000744155
0.000971451
0.00110278
0.00118949
0.00125787
0.00131634
0.00137369
0.00144302
0.00154035
0.00166932
0.00181491
0.00195565
0.00208035
0.00218803
0.00227858
0.00235193
0.00240875
0.00245052
0.00247941
0.00249758
0.00250498
0.00249731
0.00246694
0.00240509
0.00229927
0.00213798
0.00191926
0.00166664
0.00143817
0.0012733
0.0011552
0.00103511
0.000854584
0.000553318
0.000403167
0.000733045
0.000963437
0.00109765
0.00118722
0.0012573
0.00131457
0.00136277
0.0014136
0.00148697
0.00159278
0.00172798
0.001872
0.00200476
0.00212149
0.00221938
0.00229717
0.00235444
0.00239225
0.0024144
0.0024247
0.00242518
0.0024123
0.00238036
0.00232068
0.0022236
0.00207904
0.00188635
0.00166704
0.00146443
0.00130696
0.00117969
0.00103901
0.000828076
0.000512251
0.000397251
0.000720329
0.000950269
0.00108832
0.00118256
0.00125681
0.00131544
0.00136088
0.00139942
0.00143943
0.00151398
0.00162461
0.00176183
0.00190187
0.00203044
0.00214093
0.00223001
0.0022957
0.00233766
0.00235923
0.00236487
0.00235738
0.00233623
0.00229901
0.00223996
0.00215161
0.00202417
0.00185735
0.00166815
0.00148915
0.00133862
0.00120555
0.00105195
0.000826606
0.000505177
0.000381059
0.000700756
0.000934224
0.00107771
0.00117755
0.00125728
0.00132132
0.00136797
0.00139903
0.00142439
0.00145438
0.00152219
0.00163642
0.00177321
0.00191203
0.0020375
0.00214274
0.00222386
0.00227854
0.00230835
0.00231627
0.00230536
0.0022773
0.00223372
0.00217374
0.00209348
0.00198416
0.00184245
0.00167909
0.00151524
0.00136821
0.00123135
0.0010704
0.000832178
0.000508461
0.000361379
0.000679497
0.000914732
0.00106318
0.00116919
0.00125617
0.00132766
0.00138204
0.00141737
0.00143509
0.00144612
0.00146697
0.00151805
0.00162997
0.00176565
0.0019038
0.00202816
0.00212957
0.0022045
0.00225263
0.00227186
0.00226473
0.0022336
0.00218302
0.00211729
0.00203883
0.00194203
0.00182119
0.00167899
0.00153042
0.00139021
0.00125519
0.00109275
0.000850458
0.000525274
0.000338642
0.000654572
0.000892384
0.00104652
0.00115858
0.00125221
0.00133185
0.00139586
0.00144141
0.00146622
0.00147029
0.00146549
0.00147198
0.00150858
0.00160895
0.00174463
0.00188358
0.00200978
0.00211387
0.00219088
0.00223508
0.00224366
0.00221979
0.00216875
0.00209834
0.00201361
0.00191636
0.001805
0.00167803
0.00154092
0.00140826
0.0012775
0.00111884
0.000877958
0.000554847
0.000317216
0.000630718
0.000869579
0.00102872
0.00114676
0.00124709
0.00133458
0.00140781
0.00146389
0.00150004
0.00151265
0.00150451
0.00148223
0.00147161
0.00149052
0.00156866
0.00170223
0.00184599
0.00198116
0.00209495
0.00217499
0.00221365
0.00221063
0.0021707
0.00210423
0.00201579
0.00191534
0.00180373
0.00167983
0.00155081
0.0014235
0.00129817
0.00114731
0.000914169
0.000593388
0.000297119
0.000606527
0.000846374
0.00101048
0.00113416
0.00124084
0.00133605
0.00141862
0.00148573
0.00153422
0.00156151
0.00156509
0.0015459
0.0015115
0.00148553
0.00149041
0.00154052
0.00166146
0.00180854
0.00195326
0.00207339
0.00215221
0.00218249
0.00216654
0.00211394
0.0020347
0.00192882
0.00181063
0.00168568
0.00155838
0.00143399
0.00131377
0.00117194
0.000949159
0.000628106
0.000279915
0.00058433
0.000824865
0.00099441
0.00112391
0.00123702
0.00134023
0.00143243
0.00151045
0.00157059
0.00160986
0.00162505
0.0016165
0.00158537
0.0015397
0.00149855
0.00148813
0.0015231
0.00162831
0.0017757
0.00192511
0.00204479
0.00211677
0.00213756
0.00211027
0.00204247
0.00194917
0.00182956
0.00169841
0.00156698
0.00144276
0.00132667
0.00119191
0.000976587
0.00064631
0.000265837
0.000562733
0.000804718
0.00097918
0.00111437
0.00123433
0.00134665
0.0014494
0.00153898
0.0016111
0.00166233
0.00169022
0.00169257
0.00167025
0.00162616
0.00156935
0.00151632
0.00149437
0.00152288
0.00161465
0.00175484
0.00190256
0.00201536
0.0020755
0.00208159
0.00203805
0.00195471
0.00184515
0.00171167
0.00157557
0.00145046
0.00133668
0.0012053
0.000992152
0.000648801
0.000255742
0.000547496
0.000788954
0.00096546
0.00110372
0.00122839
0.00134834
0.00146356
0.00156765
0.00165622
0.00172407
0.0017664
0.0017808
0.00176817
0.00172988
0.0016693
0.0015956
0.00152951
0.00150159
0.00152973
0.00161558
0.00173622
0.00186786
0.00197089
0.00202156
0.00201548
0.00195308
0.00184785
0.00172346
0.00158823
0.00146243
0.00134812
0.00121662
0.00100173
0.00064675
0.00024792
0.000535331
0.000776222
0.000953439
0.00109367
0.00122194
0.00134699
0.0014678
0.00158415
0.00168758
0.00177571
0.0018428
0.00188131
0.00188599
0.00185663