/*--------------------------------*- C++ -*----------------------------------*\
| =========                 |                                                 |
| \\      /  F ield         | OpenFOAM: The Open Source CFD Toolbox           |
|  \\    /   O peration     | Version:  2.0.x                                 |
|   \\  /    A nd           | Web:      www.OpenFOAM.org                      |
|    \\/     M anipulation  |                                                 |
\*---------------------------------------------------------------------------*/
FoamFile
{
    version     2.0;
    format      ascii;
    class       volScalarField;
    location    "700";
    object      omega;
}
// * * * * * * * * * * * * * * * * * * * * * * * * * * * * * * * * * * * * * //

dimensions      [0 0 -1 0 0 0 0];

internalField   nonuniform List<scalar> 
78750
(
1021.32
6.67194
7.07264
7.17472
7.241
7.33169
7.45792
7.57285
7.664
7.74637
7.81873
7.88203
7.93701
7.98406
8.0228
8.05524
8.08166
8.10225
8.11651
8.12674
8.12845
8.13497
8.13508
8.13459
8.12653
8.10949
8.08467
8.05377
8.01473
7.9708
7.9206
7.85911
7.78236
7.48136
1090.92
1021.18
5.97873
6.32856
6.39036
6.55958
6.95315
7.28829
7.56555
7.80905
8.01973
8.19696
8.34411
8.46354
8.55818
8.63042
8.6826
8.71657
8.73475
8.737
8.73125
8.70946
8.66576
8.60685
8.53588
8.45817
8.37967
8.30255
8.22367
8.13979
8.05211
7.96236
7.86215
7.74357
7.39514
1092.25
1020.53
4.87573
5.33507
5.79816
6.34548
6.90935
7.42705
7.83168
8.11905
8.34139
8.51336
8.64544
8.74407
8.81469
8.86118
8.88669
8.89329
8.88666
8.86042
8.81936
8.76652
8.70332
8.62967
8.54635
8.45191
8.34894
8.24208
8.12482
7.99294
7.87718
7.7838
7.70702
7.54617
7.21523
1092.59
1020.49
5.24338
6.1554
6.96959
7.63255
8.06059
8.3402
8.54851
8.721
8.84634
8.94022
9.01118
9.06398
9.10131
9.12433
9.13359
9.13032
9.10996
9.07492
9.02541
8.96247
8.88685
8.79777
8.69395
8.57527
8.44364
8.30171
8.14238
7.97205
7.81269
7.66903
7.54471
7.37699
7.09712
1092.71
1020.5
5.50575
6.51907
7.24599
7.75244
8.11782
8.39438
8.61025
8.78196
8.92188
9.0358
9.12659
9.19618
9.24543
9.27418
9.28247
9.27463
9.24524
9.19868
9.13599
9.05877
8.96805
8.8636
8.74494
8.61213
8.46646
8.30986
8.13606
7.94381
7.7598
7.58836
7.42932
7.24482
6.99519
1092.69
1020.7
5.90312
6.99847
7.75111
8.24737
8.57858
8.81639
8.99758
9.1408
9.25534
9.34596
9.4149
9.46362
9.49329
9.50482
9.50009
9.47649
9.43654
9.37993
9.30696
9.219
9.11629
8.99831
8.86494
8.71582
8.5513
8.37277
8.17497
7.96195
7.7567
7.55708
7.36418
7.1619
6.932
1092.7
1020.81
6.09001
7.18264
7.8881
8.341
8.65082
8.8828
9.06848
9.22173
9.34837
9.45169
9.53378
9.59486
9.63464
9.65362
9.65282
9.63448
9.59385
9.53385
9.45557
9.36056
9.24782
9.11704
8.97065
8.80819
8.63049
8.44017
8.23223
8.00331
7.77294
7.5469
7.32444
7.10381
6.88578
1092.7
1021.04
6.42218
7.57435
8.26794
8.68484
8.9625
9.17262
9.34384
9.48795
9.60938
9.70897
9.78593
9.84011
9.87236
9.88296
9.87472
9.84261
9.79052
9.72017
9.63417
9.5327
9.41436
9.27779
9.1221
8.94675
8.75112
8.53814
8.30085
8.05276
7.81051
7.56324
7.31591
7.07938
6.86442
1092.7
1021.17
6.5952
7.72972
8.37011
8.75182
9.01406
9.22111
9.39644
9.54838
9.6807
9.79315
9.88409
9.95203
9.99558
10.0142
10.0097
9.98095
9.93087
9.86201
9.77672
9.67497
9.55596
9.41844
9.26157
9.08387
8.88165
8.64938
8.38477
8.11291
7.84501
7.57046
7.30355
7.06366
6.85132
1092.7
1021.39
6.88662
8.0384
8.64769
8.98817
9.21549
9.39644
9.55517
9.70109
9.83505
9.95391
10.0531
10.128
10.1763
10.1975
10.1939
10.1661
10.1165
10.0476
9.96091
9.85773
9.73796
9.60106
9.44603
9.27059
9.07001
8.8365
8.56018
8.25404
7.94549
7.62468
7.31774
7.06312
6.84532
1092.67
1021.56
7.07407
8.18574
8.73755
9.04041
9.24686
9.41524
9.57179
9.71774
9.86251
10.0012
10.1194
10.2093
10.2713
10.3041
10.3094
10.2923
10.2509
10.1875
10.1036
10.0018
9.88305
9.74772
9.595
9.4221
9.22332
8.99151
8.7269
8.42612
8.06777
7.68721
7.34184
7.07137
6.84271
1092.65
1021.81
7.34079
8.44024
8.95054
9.21023
9.37592
9.50428
9.61507
9.74644
9.89381
10.0453
10.1912
10.3089
10.3888
10.4357
10.4541
10.4469
10.4148
10.3589
10.28
10.1812
10.0649
9.93203
9.78193
9.61215
9.4182
9.19442
8.93769
8.63398
8.24751
7.79096
7.38824
7.09287
6.84848
1092.64
1022.04
7.53232
8.57321
9.03285
9.26507
9.40847
9.51571
9.61809
9.74608
9.8996
10.059
10.2017
10.324
10.4237
10.4955
10.5356
10.5431
10.5256
10.4818
10.413
10.3221
10.2119
10.0842
9.93916
9.7752
9.58855
9.37676
9.12988
8.81885
8.41189
7.91756
7.45392
7.12931
6.86509
1092.63
1022.34
7.7682
8.7742
9.19903
9.40629
9.51973
9.57647
9.61913
9.69628
9.83667
10.0046
10.1699
10.3125
10.4248
10.5106
10.5716
10.6107
10.6188
10.5964
10.5425
10.4635
10.3624
10.2423
10.1043
9.94759
9.76837
9.56218
9.31521
8.99601
8.57265
8.04876
7.52843
7.17434
6.88874
1092.63
1022.55
7.88764
8.85557
9.2696
9.47833
9.59145
9.63038
9.62599
9.64753
9.71041
9.8545
10.0271
10.1975
10.3482
10.4704
10.5597
10.6151
10.6412
10.6405
10.6155
10.5596
10.475
10.3685
10.2418
10.0948
9.926
9.72689
9.47675
9.14866
8.71542
8.17435
7.61981
7.2326
6.92156
1092.63
1022.7
7.97777
8.96188
9.38574
9.60402
9.72318
9.75604
9.7232
9.66419
9.65172
9.68906
9.81473
9.9797
10.1545
10.3136
10.4453
10.5441
10.6083
10.638
10.6349
10.6031
10.5459
10.4615
10.3518
10.2185
10.0598
9.86615
9.61656
9.28474
8.84448
8.29234
7.71678
7.29987
6.96256
1092.64
1022.74
7.98475
8.9864
9.43662
9.67697
9.81825
9.8733
9.8574
9.7792
9.67754
9.62762
9.63965
9.73066
9.89393
10.0687
10.2324
10.3705
10.4772
10.5497
10.5871
10.5899
10.5596
10.4994
10.4128
10.2996
10.1563
9.97153
9.72675
9.39797
8.95773
8.40185
7.81554
7.37911
7.01582
1092.67
1022.74
7.98737
9.02529
9.50846
9.77004
9.92942
10.0083
10.0164
9.95963
9.84855
9.71167
9.61213
9.5927
9.63278
9.76097
9.92597
10.0913
10.2377
10.355
10.4383
10.4858
10.4968
10.4734
10.4169
10.3283
10.2042
10.0339
9.80027
9.4804
9.04727
8.49571
7.90835
7.46239
7.07766
1092.71
1022.71
7.9752
9.02447
9.53501
9.81871
9.99869
10.1059
10.1427
10.1245
10.0516
9.93011
9.77333
9.61834
9.53127
9.52423
9.59203
9.7366
9.8955
10.0481
10.1776
10.2746
10.3351
10.3578
10.343
10.2895
10.1938
10.0461
9.83398
9.53407
9.1169
8.57944
7.99893
7.55067
7.14935
1092.77
1022.6
7.92368
9.0226
9.56649
9.87045
10.0672
10.1922
10.2563
10.2644
10.2252
10.1418
10.0188
9.86103
9.68353
9.5253
9.434
9.41959
9.49405
9.63734
9.7924
9.93588
10.0517
10.1318
10.1717
10.1684
10.1176
10.0108
9.82911
9.55238
9.16308
8.64832
8.08186
7.63714
7.22512
1092.84
1022.42
7.85128
8.99965
9.572
9.89783
10.1123
10.2571
10.345
10.377
10.3662
10.3128
10.223
10.1008
9.94796
9.76891
9.58075
9.41552
9.31073
9.28239
9.35126
9.48977
9.63998
9.77586
9.87871
9.93859
9.94914
9.90214
9.7733
9.54343
9.18309
8.70237
8.16003
7.72498
7.30668
1092.93
1022.27
7.82504
8.99906
9.60247
9.94555
10.1712
10.3259
10.4255
10.4766
10.4818
10.4461
10.3744
10.2734
10.1477
9.99929
9.82891
9.64184
9.44874
9.27501
9.15706
9.11504
9.18812
9.33201
9.47679
9.59998
9.68396
9.70758
9.65392
9.48414
9.18001
8.74075
8.22928
7.80865
7.39003
1093.04
1022.24
7.82531
9.03451
9.65906
10.0133
10.2454
10.4059
10.5116
10.5695
10.583
10.5557
10.4922
10.3998
10.2846
10.15
9.9979
9.82965
9.64855
9.45458
9.2586
9.08877
8.98383
8.97687
9.0594
9.20185
9.3443
9.44348
9.46427
9.38192
9.14387
8.75426
8.28808
7.88905
7.47686
1093.19
1022.29
7.89446
9.13046
9.7634
10.1178
10.3482
10.507
10.6107
10.6658
10.6758
10.6469
10.5806
10.4898
10.3829
10.2617
10.1225
9.96345
9.78711
9.59676
9.39374
9.18585
8.99629
8.87199
8.83818
8.87975
9.00371
9.14342
9.23529
9.22781
9.07008
8.75199
8.33365
7.96231
7.56439
1093.36
1022.5
8.03791
9.27035
9.88879
10.2328
10.4569
10.6111
10.7096
10.7581
10.7599
10.7246
10.6576
10.5723
10.4733
10.3612
10.2335
10.0856
9.9149
9.72294
9.51017
9.28162
9.05295
8.86636
8.75877
8.73495
8.77996
8.88749
9.00522
9.05201
8.97586
8.72574
8.36324
8.02418
7.64484
1093.51
1022.81
8.19585
9.39621
9.9947
10.33
10.5511
10.7035
10.7995
10.8438
10.8416
10.8029
10.7399
10.664
10.5793
10.4816
10.3655
10.2264
10.0607
9.86802
9.64697
9.40004
9.13951
8.90319
8.73899
8.65891
8.6602
8.71749
8.81426
8.88981
8.8667
8.68093
8.37587
8.0745
7.7138
1093.59
1023.1
8.31225
9.47851
10.0657
10.4
10.6246
10.7811
10.8805
10.9271
10.9265
10.8892
10.8292
10.7612
10.696
10.6221
10.5254
10.4005
10.2402
10.0419
9.80959
9.546
9.26028
8.97885
8.75336
8.62339
8.58306
8.60913
8.6818
8.76025
8.76611
8.63524
8.37955
8.10987
7.76223
1093.61
1023.3
8.33469
9.49041
10.0963
10.4434
10.6785
10.8457
10.9562
11.0147
11.0258
10.9987
10.9429
10.8717
10.801
10.7314
10.6527
10.552
10.4186
10.244
10.0194
9.74164
9.4296
9.10933
8.82473
8.63354
8.54332
8.54
8.58554
8.65134
8.67736
8.58712
8.3764
8.13516
7.79578
1093.6
1023.32
8.33498
9.49355
10.0994
10.4618
10.7111
10.8929
11.02
11.0985
11.1308
11.1251
11.0838
11.0124
10.9207
10.8237
10.7251
10.6178
10.4937
10.3429
10.1532
9.91022
9.60822
9.27603
8.95311
8.69928
8.55017
8.5017
8.52158
8.57545
8.60442
8.54435
8.37252
8.15134
7.81334
1093.57
1023.22
8.25013
9.447
10.0889
10.4665
10.7347
10.9315
11.0744
11.1723
11.2316
11.2561
11.2512
11.2149
11.1462
11.0469
10.9253
10.7926
10.6495
10.4875
10.2987
10.0715
9.79617
9.47548
9.13253
8.82126
8.6039
8.50246
8.4882
8.52288
8.55036
8.50615
8.36484
8.16287
7.82794
1093.58
1022.95
8.10813
9.36012
10.0514
10.463
10.7467
10.9568
11.1136
11.2271
11.3041
11.3516
11.3738
11.3732
11.3458
11.2858
11.1882
11.0536
10.8901
10.7072
10.5077
10.282
10.018
9.71227
9.36204
9.00548
8.71687
8.53541
8.47976
8.49351
8.51709
8.48195
8.35762
8.17293
7.84284
1093.64
1022.65
7.97476
9.27859
10.022
10.4558
10.7526
10.9751
11.1448
11.2726
11.3661
11.4327
11.48
11.511
11.5242
11.5139
11.4678
11.3771
11.2379
11.0564
10.8426
10.6023
10.3338
10.025
9.66317
9.27183
8.91441
8.6409
8.50142
8.48453
8.49481
8.47094
8.36232
8.18791
7.86872
1093.78
1022.49
7.92539
9.25964
10.0201
10.4733
10.7797
11.0076
11.1817
11.3146
11.4155
11.493
11.5587
11.6175
11.6692
11.7029
11.7043
11.6644
11.565
11.4065
11.1991
10.9527
10.6725
10.3522
9.98151
9.58142
9.18614
8.82918
8.58949
8.50269
8.50012
8.47184
8.37358
8.20958
7.90796
1093.99
1022.5
7.92973
9.3025
10.0844
10.5422
10.8482
11.0733
11.2435
11.3718
11.4711
11.5509
11.6341
11.7252
11.8261
11.9193
11.9782
11.9786
11.923
11.7839
11.5749
11.3085
10.9956
10.6356
10.2432
9.84164
9.42443
9.02625
8.72428
8.56884
8.51731
8.48029
8.39092
8.23862
7.96153
1094.26
1022.74
8.13738
9.48672
10.2168
10.6434
10.9325
11.1456
11.3031
11.4149
11.4884
11.5614
11.6568
11.8092
12.0033
12.1927
12.3463
12.4196
12.399
12.2865
12.0869
11.815
11.4862
11.1085
10.6998
10.2635
9.76562
9.24204
8.84069
8.63672
8.56003
8.50709
8.41548
8.27103
8.01754
1094.46
1023.32
8.43485
9.678
10.3459
10.7381
11.008
11.2049
11.3404
11.423
11.4816
11.5413
11.6481
11.8301
12.079
12.3503
12.5523
12.6593
12.6693
12.5887
12.4072
12.1531
11.8446
11.5005
11.1269
10.6965
10.1783
9.59488
9.06682
8.74474
8.61538
8.54812
8.45468
8.3149
8.06796
1094.46
1024.29
8.75254
9.84191
10.4305
10.7951
11.0511
11.2326
11.3492
11.4043
11.4105
11.4274
11.5387
11.7698
12.0814
12.362
12.566
12.6773
12.6957
12.6316
12.4981
12.3022
12.0542
11.7621
11.4195
11.0041
10.4963
9.90805
9.33247
8.92268
8.7197
8.61487
8.50753
8.3487
8.06399
1094.31
1025.05
8.83435
9.85815
10.439
10.8011
11.0574
11.2385
11.3507
11.3839
11.3597
11.3252
11.3181
11.4522
11.7389
12.0137
12.2595
12.444
12.5427
12.5571
12.4933
12.3593
12.1711
11.9339
11.6254
11.2271
10.733
10.1577
9.5783
9.12665
8.86227
8.70902
8.56679
8.38133
8.04656
1093.81
1025.05
8.79853
9.80783
10.3827
10.754
11.0305
11.2346
11.3659
11.4221
11.3969
11.3244
11.2473
11.1948
11.1517
11.2454
11.46
11.7552
11.975
12.1334
12.2023
12.1968
12.1103
11.9498
11.7051
11.3563
10.9013
10.3588
9.79564
9.32765
9.01798
8.81323
8.6324
8.40057
7.96672
1093.34
1024.54
8.51291
9.58019
10.2029
10.6137
10.9281
11.1743
11.3574
11.4781
11.539
11.5145
11.412
11.2654
11.124
11.009
10.9502
10.924
11.0429
11.2422
11.4788
11.6298
11.6902
11.6696
11.5529
11.3177
10.9473
10.4859
9.96852
9.5017
9.15174
8.90046
8.68295
8.40847
7.89948
1093.12
1023.67
8.2421
9.38439
10.048
10.4802
10.8098
11.0769
11.2974
11.4728
11.5989
11.6844
11.7
11.6422
11.5043
11.3015
11.0665
10.8536
10.6796
10.5696
10.536
10.6477
10.8132
10.9723
11.0575
11.0434
10.8797
10.5291
10.0942
9.64793
9.28229
8.99328
8.7422
8.43831
7.90049
1093.14
1023.11
8.00309
9.19314
9.90964
10.3779
10.7361
11.0337
11.2756
11.4629
11.6046
11.7027
11.7625
11.7812
11.7586
11.6788
11.5305
11.3102
11.0338
10.7356
10.4671
10.2585
10.1352
10.1232
10.2653
10.4591
10.5585
10.4674
10.1473
9.77133
9.39516
9.07832
8.80456
8.47927
7.91182
1093.28
1022.94
7.9389
9.14502
9.8825
10.3614
10.7285
11.0302
11.2843
11.4975
11.6662
11.7857
11.8549
11.8754
11.8532
11.7911
11.6899
11.5456
11.3507
11.1004
10.8037
10.4828
10.1811
9.96653
9.89034
9.94196
10.0698
10.1623
10.0876
9.79903
9.47141
9.15046
8.86324
8.53301
7.98703
1093.61
1022.81
7.81928
9.0446
9.82423
10.341
10.7236
11.0414
11.3123
11.5416
11.7314
11.881
11.9856
12.0431
12.0512
12.009
11.9167
11.7757
11.5872
11.3511
11.0691
10.7471
10.398
10.0675
9.84001
9.75602
9.78839
9.86715
9.87619
9.76232
9.49662
9.20063
8.91517
8.59182
8.07326
1093.9
1022.8
7.80053
9.02927
9.82138
10.3477
10.7455
11.0754
11.3562
11.5959
11.7966
11.9577
12.0768
12.1518
12.1825
12.1687
12.1071
11.9955
11.8328
11.6164
11.3448
11.0201
10.6452
10.248
9.91044
9.71227
9.65313
9.68028
9.71445
9.67143
9.49325
9.23685
8.96835
8.65929
8.17423
1094.21
1022.9
7.825
9.05277
9.84958
10.3842
10.7943
11.1419
11.437
11.6926
11.9089
12.0864
12.2239
12.3176
12.366
12.367
12.3216
12.2217
12.068
11.8596
11.5953
11.271
10.8804
10.4386
10.0205
9.72482
9.5795
9.56068
9.59004
9.58462
9.46666
9.25602
9.01187
8.72162
8.26684
1094.42
1023.07
7.91586
9.11865
9.88827
10.4126
10.8291
11.1968
11.5127
11.7807
12.0053
12.1938
12.3489
12.4674
12.5469
12.5834
12.5722
12.5054
12.378
12.185
11.9239
11.5941
11.1906
10.7166
10.2278
9.83043
9.58681
9.50035
9.5087
9.51448
9.44069
9.26679
9.04814
8.77834
8.34528
1094.53
1023.26
7.97293
9.15099
9.90812
10.4304
10.8559
11.2402
11.5738
11.8654
12.1175
12.3302
12.5054
12.6439
12.7459
12.8098
12.8305
12.8034
12.7132
12.5516
12.3082
11.974
11.54
11.0237
10.4729
9.98087
9.63346
9.4735
9.45037
9.46045
9.41503
9.27271
9.07713
8.82347
8.39913
1094.56
1023.53
8.08359
9.19442
9.92137
10.4342
10.8624
11.2545
11.6068
11.9126
12.1733
12.3912
12.5732
12.7173
12.824
12.8929
12.9216
12.9065
12.8406
12.7164
12.5241
12.2525
11.8802
11.3827
10.773
10.176
9.7348
9.49099
9.42563
9.42735
9.394
9.27715
9.10374
8.86613
8.44681
1094.55
1023.75
8.11706
9.20343
9.91504
10.4196
10.8511
11.2512
11.6099
11.925
12.201
12.4426
12.6412
12.798
12.9157
12.9912
13.0205
13.0009
12.9278
12.7977
12.606
12.3463
12.0055
11.5591
10.9826
10.3226
9.79396
9.50203
9.41156
9.40814
9.38101
9.27915
9.12013
8.888
8.44545
1094.36
1023.79
8.11658
9.17618
9.85619
10.3475
10.7795
11.1923
11.5757
11.9134
12.202
12.4467
12.6516
12.8234
12.9574
13.0509
13.0994
13.0964
13.0376
12.919
12.7376
12.4892
12.1644
11.7421
11.1952
10.5331
9.89382
9.52559
9.40463
9.39426
9.37111
9.28097
9.13269
8.9033
8.43931
1094.17
1023.76
8.07177
9.11701
9.78542
10.2672
10.6915
11.1016
11.4901
11.8425
12.1543
12.4226
12.646
12.8244
12.966
13.0656
13.1216
13.1305
13.0881
12.9897
12.8305
12.605
12.3049
11.9106
11.3941
10.7495
10.0741
9.60482
9.41723
9.38572
9.36613
9.28362
9.14192
8.91123
8.42121
1094.02
1023.58
7.99175
9.04275
9.70055
10.1685
10.58
10.9863
11.3812
11.7478
12.0759
12.3632
12.6085
12.8129
12.9767
13.0974
13.1727
13.1988
13.173
13.0908
12.948
12.7415
12.4639
12.096
11.6053
10.9683
10.2525
9.69168
9.44898
9.39266
9.3653
9.28802
9.14975
8.91726
8.41053
1093.97
1023.44
7.94693
8.99216
9.63749
10.0917
10.4892
10.887
11.283
11.6624
12.0084
12.3151
12.5792
12.8011
12.9809
13.1226
13.218
13.2601
13.2519
13.1898
13.0697
12.8899
12.6449
12.3178
11.8772
11.2903
10.5743
9.87697
9.49954
9.39882
9.36772
9.29583
9.16177
8.92878
8.41497
1094.02
1023.43
7.94207
8.9753
9.60112
10.0379
10.4207
10.806
11.1984
11.5833
11.9387
12.258
12.5379
12.7785
12.9788
13.1361
13.2526
13.326
13.3405
13.2964
13.1897
13.0259
12.8047
12.5139
12.1302
11.6241
10.973
10.2439
9.68619
9.45576
9.38508
9.30707
9.17502
8.9459
8.44255
1094.15
1023.39
7.93047
8.95144
9.55501
9.97137
10.3377
10.7115
11.1009
11.4915
11.8584
12.1882
12.4768
12.7264
12.9385
13.1168
13.2549
13.3465
13.3864
13.3637
13.275
13.1254
12.9193
12.6506
12.2987
11.8331
11.2254
10.5101
9.87229
9.54612
9.42512
9.32988
9.19316
8.96223
8.45586
1094.16
1023.31
7.9279
8.94861
9.53064
9.92429
10.2696
10.6264
11.0089
11.4048
11.7868
12.1318
12.4328
12.6924
12.916
13.1
13.2452
13.3492
13.4064
13.404
13.3374
13.2035
13.01
12.7547
12.4197
11.9726
11.3855
10.6937
10.044
9.63987
9.46376
9.35047
9.20955
8.97443
8.45529
1094.1
1023.3
7.9427
8.95042
9.51097
9.88484
10.2113
10.5527
10.9297
11.3328
11.733
12.0973
12.415
12.6864
12.9171
13.112
13.2696
13.3849
13.4556
13.4688
13.4188
13.2992
13.1155
12.8691
12.5446
12.1042
11.5119
10.8076
10.1623
9.7468
9.53204
9.38028
9.22079
8.97821
8.45672
1094.08
1023.37
8.00085
8.98253
9.50824
9.85583
10.1612
10.4845
10.8508
11.255
11.668
12.0516
12.3878
12.6764
12.9223
13.1322
13.3102
13.4573
13.5553
13.5915
13.5656
13.4721
13.315
13.0923
12.7835
12.3557
11.7711
11.0265
10.2725
9.77274
9.55898
9.41971
9.25621
9.00279
8.46176
1094.15
1023.5
8.05634
9.00336
9.50187
9.82872
10.1123
10.4108
10.7575
11.1539
11.5721
11.9709
12.3218
12.625
12.8874
13.1149
13.3106
13.4741
13.6001
13.6831
13.7081
13.6713
13.5691
13.4014
13.1495
12.7861
12.2793
11.5912
10.7669
10.0421
9.63959
9.44234
9.2807
9.04181
8.55426
1094.68
1023.62
8.09336
9.01184
9.4901
9.79906
10.0613
10.3312
10.6495
11.0296
11.4502
11.866
12.2361
12.5536
12.8258
13.0615
13.2671
13.4447
13.5898
13.6963
13.759
13.7734
13.7383
13.6396
13.4629
13.1857
12.7797
12.2066
11.4431
10.5987
9.94231
9.56713
9.34085
9.10599
8.68052
1095.08
1023.79
8.11988
9.01437
9.48234
9.77993
10.025
10.2646
10.5415
10.8859
11.2944
11.7235
12.1221
12.4634
12.7531
12.9995
13.2101
13.3882
13.5341
13.6468
13.7242
13.7631
13.76
13.7085
13.5908
13.3882
13.0731
12.6056
11.9382
11.0936
10.3017
9.77834
9.46782
9.18095
8.72633
1095.09
1023.84
8.12204
9.01101
9.47006
9.76203
9.99616
10.2096
10.4387
10.7274
11.097
11.5191
11.936
12.3014
12.6119
12.8741
13.0946
13.2758
13.4203
13.5307
13.6095
13.6583
13.6759
13.6505
13.5611
13.3825
13.0798
12.6347
12.0198
11.255
10.5015
9.95845
9.5961
9.24984
8.71729
1094.65
1023.84
8.08787
8.97185
9.44459
9.74418
9.97446
10.169
10.3579
10.5836
10.8911
11.2824
11.704
12.0947
12.429
12.7095
12.9395
13.1215
13.2594
13.3585
13.4255
13.4666
13.4822
13.4618
13.3861
13.2303
12.9689
12.5593
11.9781
11.2714
10.5952
10.0791
9.68885
9.27147
8.60426
1094.06
1023.76
8.04055
8.94155
9.42631
9.73626
9.97239
10.1623
10.3206
10.4887
10.724
11.0537
11.4569
11.8668
12.2302
12.5395
12.7921
12.988
13.1288
13.219
13.2695
13.2907
13.2877
13.2526
13.1712
13.0207
12.7751
12.4023
11.8883
11.2758
10.6784
10.1891
9.77263
9.28788
8.51056
1093.78
1023.71
7.98927
8.89375
9.39409
9.72059
9.97043
10.1638
10.3126
10.4373
10.5721
10.813
11.1554
11.5598
11.9539
12.3028
12.594
12.8229
12.9877
13.0901
13.1392
13.1488
13.1251
13.0677
12.9708
12.8193
12.5923
12.2596
11.8111
11.2814
10.7558
10.2909
9.85967
9.33586
8.50657
1093.74
1023.58
7.9081
8.83398
9.35682
9.70362
9.97179
10.1822
10.3335
10.4354
10.521
10.6226
10.8447
11.1969
11.5977
11.9868
12.326
12.6028
12.8111
12.9481
13.0197
13.035
13.0017
12.9247
12.8084
12.6508
12.4417
12.1543
11.7719
11.3139
10.834
10.383
9.94401
9.40091
8.53503
1093.77
1023.42
7.81972
8.76141
9.30582
9.67539
9.96817
10.2023
10.3766
10.4883
10.5452
10.5857
10.6601
10.8322
11.1804
11.5798
11.9677
12.305
12.573
12.7666
12.8881
12.934
12.9112
12.8258
12.6893
12.512
12.3
12.0387
11.7095
11.3127
10.8772
10.4504
10.0217
9.47956
8.60657
1093.91
1023.24
7.71422
8.67701
9.24671
9.63928
9.9552
10.216
10.4207
10.5639
10.6415
10.6564
10.6482
10.6814
10.8078
11.1321
11.5256
11.9163
12.26
12.5362
12.7362
12.8486
12.8683
12.8038
12.6686
12.4793
12.2486
11.9805
11.6688
11.3078
10.908
10.5053
10.093
9.56933
8.71286
1094.15
1023.07
7.61174
8.59007
9.18331
9.59919
9.9388
10.2255
10.4594
10.6348
10.746
10.7841
10.7596
10.695
10.6705
10.736
10.9989
11.4026
11.8135
12.1855
12.4896
12.6987
12.7974
12.7877
12.6816
12.5023
12.2606
11.9819
11.672
11.3152
10.9358
10.5502
10.1575
9.66479
8.8489
1094.45
1022.9
7.50588
8.50014
9.11722
9.55547
9.91757
10.2296
10.4924
10.7009
10.849
10.9301
10.9403
10.8821
10.7803
10.7109
10.7401
10.911
11.2816
11.7075
12.1101
12.4342
12.6419
12.7197
12.6778
12.5352
12.3214
12.0293
11.6931
11.3343
10.9587
10.5814
10.2056
9.74558
8.97519
1094.71
1022.76
7.40652
8.41545
9.05808
9.51914
9.90393
10.2421
10.5346
10.7758
10.9583
11.0762
11.1214
11.0963
11.004
10.8688
10.7504
10.7306
10.8507
11.1796
11.6125
12.0324
12.358
12.5491
12.6002
12.5214
12.3458
12.0908
11.7546
11.376
10.9864
10.6089
10.2464
9.81027
9.07007
1094.83
1022.65
7.30869
8.33544
9.00238
9.48623
9.89514
10.2627
10.5871
10.8619
11.0783
11.2302
11.3114
11.3183
11.2533
11.1242
10.9573
10.8034
10.748
10.8471
11.1335
11.5499
11.9684
12.2782
12.4406
12.4603
12.3434
12.1095
11.8024
11.4187
11.0158
10.6352
10.2792
9.85378
9.12264
1094.85
1022.56
7.23718
8.2716
8.95146
9.44912
9.87568
10.2687
10.6324
10.9498
11.2123
11.4089
11.5298
11.5708
11.5358
11.4268
11.2521
11.0372
10.8449
10.7704
10.8665
11.132
11.4894
11.8649
12.1512
12.2902
12.2713
12.1011
11.8102
11.4548
11.0566
10.6747
10.3171
9.89154
9.1556
1094.83
1022.49
7.1812
8.22063
8.9073
9.41432
9.85452
10.2652
10.6463
11.0009
11.3063
11.5597
11.7484
11.8547
11.8667
11.7857
11.6178
11.3805
11.1049
10.8786
10.8056
10.9049
11.152
11.4612
11.7569
11.9897
12.0828
12.0191
11.7968
11.4576
11.0829
10.7091
10.3543
9.92841
9.188
1094.83
1022.45
7.14159
8.18235
8.86592
9.37435
9.8237
10.2472
10.6471
11.0189
11.3615
11.6565
11.9006
12.08
12.18
12.1836
12.0801
11.85
11.5189
11.1704
10.9146
10.8487
10.9427
11.1717
11.4405
11.6811
11.835
11.8539
11.7233
11.4528
11.1057
10.7467
10.3949
9.96457
9.21475
1094.88
1022.45
7.12033
8.14936
8.8233
9.32705
9.77909
10.2091
10.6222
11.0154
11.3778
11.712
12.0004
12.2351
12.4038
12.4936
12.4873
12.3628
12.0922
11.6905
11.2529
10.9608
10.8884
10.9621
11.1725
11.419
11.6115
11.6917
11.636
11.4288
11.1296
10.7969
10.4526
10.0222
9.27489
1095.1
1022.48
7.11811
8.13225
8.78596
9.27672
9.72198
10.1507
10.5702
10.9788
11.3678
11.7254
12.0533
12.3363
12.5565
12.7096
12.7808
12.7522
12.5981
12.3057
11.9061
11.4862
11.1179
10.9708
11.0056
11.1649
11.3676
11.5094
11.5205
11.3983
11.1507
10.8491
10.52
10.0976
9.36255
1095.38
1022.57
7.14788
8.12598
8.75158
9.22333
9.65596
10.0779
10.4963
10.9122
11.3205
11.7056
12.0595
12.3744
12.65
12.8539
12.9788
13.0075
12.9335
12.7328
12.4217
12.0396
11.6238
11.2611
11.0942
11.1369
11.2508
11.379
11.4284
11.3612
11.1642
10.894
10.5835
10.1732
9.45256
1095.61
1022.65
7.15968
8.10573
8.70589
9.1585
9.57416
9.9821
10.3888
10.798
11.2111
11.6215
12.0137
12.3748
12.6889
12.9509
13.1308
13.2108
13.1913
13.0647
12.8366
12.5194
12.1235
11.7135
11.3965
11.2374
11.2604
11.3411
11.379
11.3285
11.1667
10.925
10.6351
10.2396
9.52325
1095.64
1022.71
7.17548
8.09038
8.66183
9.09452
9.49291
9.885
10.275
10.6678
11.0702
11.4851
11.9008
12.2999
12.6645
12.9686
13.1921
13.3272
13.3556
13.284
13.1107
12.8386
12.4799
12.0787
11.7089
11.4562
11.3572
11.3673
11.388
11.3343
11.1828
10.9563
10.6757
10.279
9.54336
1095.54
1022.74
7.17529
8.05625
8.60567
9.02261
9.40416
9.77687
10.1435
10.5095
10.8856
11.2829
11.7029
12.1273
12.5391
12.9045
13.1915
13.3822
13.4743
13.4611
13.3434
13.1207
12.8023
12.4205
12.0342
11.72
11.5322
11.4601
11.4269
11.3494
11.2004
10.9845
10.7114
10.3127
9.55072
1095.42
1022.75
7.17038
8.02831
8.56084
8.96529
9.33354
9.68986
10.0343
10.3715
10.7138
11.0779
11.477
11.9037
12.3409
12.7511
13.0954
13.35
13.5051
13.5575
13.5035
13.3401
13.0726
12.7233
12.3379
11.9824
11.7212
11.573
11.4855
11.3825
11.2249
11.0108
10.7401
10.3357
9.54351
1095.34
1022.74
7.15502
7.99115
8.51096
8.9089
9.27097
9.61492
9.93874
10.2461
10.5493
10.8685
11.2255
11.6297
12.0677
12.5046
12.8943
13.2036
13.4189
13.5336
13.5417
13.4459
13.244
12.9506
12.5988
12.2382
11.931
11.7158
11.5701
11.4322
11.2606
11.0437
10.7697
10.355
9.53714
1095.25
1022.71
7.12764
7.94943
8.46083
8.85571
9.21612
9.5541
9.86494
10.1497
10.4184
10.691
10.9944
11.3523
11.7644
12.2061
12.6252
12.9803
13.2541
13.4308
13.499
13.4591
13.3223
13.0914
12.7882
12.4475
12.1224
11.8612
11.6662
11.4935
11.3023
11.0754
10.7952
10.3721
9.53773
1095.2
1022.67
7.10077
7.90737
8.41198
8.80654
9.16934
9.50669
9.81133
10.0813
10.3239
10.5563
10.8052
11.1031
11.4693
11.8961
12.3343
12.7306
13.056
13.2848
13.4067
13.4249
13.3397
13.171
12.9228
12.6183
12.2985
12.0108
11.7747
11.5664
11.3524
11.1124
10.8235
10.3904
9.54143
1095.2
1022.64
7.06755
7.86167
8.36193
8.75832
9.12613
9.46677
9.77101
10.0343
10.2605
10.4625
10.6636
10.8971
11.1967
11.5802
12.0159
12.4431
12.8164
13.0966
13.2703
13.3399
13.3155
13.1973
13.0038
12.7412
12.4403
12.143
11.8789
11.6418
11.407
11.1535
10.8552
10.4145
9.56128
1095.23
1022.62
7.04191
7.8197
8.3151
8.71434
9.08762
9.43326
9.73993
10.0006
10.2164
10.3971
10.5622
10.7429
10.9774
11.2996
11.7031
12.1391
12.5469
12.8707
13.093
13.2164
13.2464
13.189
13.0445
12.8312
12.5588
12.2631
11.9783
11.7135
11.4575
11.1916
10.8851
10.4362
9.57424
1095.26
1022.61
7.00668
7.7705
8.26336
8.66717
9.0476
9.40126
9.7146
9.97779
10.1884
10.353
10.4844
10.6119
10.7686
11.0121
11.3671
11.7958
12.2326
12.6038
12.878
13.054
13.1367
13.1327
13.0424
12.8731
12.6466
12.3707
12.0797
11.7965
11.5227
11.2416
10.9207
10.4558
9.57814
1095.26
1022.59
6.9691
7.72059
8.21034
8.61758
9.00549
9.36919
9.6932
9.96521
10.1796
10.341
10.4558
10.5358
10.6231
10.772
11.0423
11.4306
11.8777
12.287
12.611
12.8396
12.9772
13.0247
12.9875
12.8648
12.6617
12.4156
12.1376
11.8502
11.5657
11.2737
10.9414
10.4592
9.56119
1095.14
1022.56
6.92662
7.66905
8.1571
8.56771
8.96307
9.3375
9.67431
9.9596
10.1854
10.3495
10.4551
10.5105
10.537
10.5907
10.7576
11.0684
11.4958
11.9275
12.2941
12.5748
12.7658
12.8655
12.8757
12.7995
12.6449
12.4196
12.1594
11.8811
11.5952
11.2969
10.9542
10.4571
9.53352
1095
1022.52
6.87888
7.61339
8.09893
8.51169
8.91367
9.29857
9.64852
9.94841
10.1891
10.3659
10.4781
10.5229
10.5199
10.5069
10.5423
10.7288
11.0864
11.5162
11.9155
12.2441
12.4947
12.6576
12.7258
12.7029
12.5918
12.4042
12.1621
11.8959
11.6158
11.3142
10.9615
10.4485
9.49678
1094.89
1022.46
6.82986
7.55897
8.04194
8.45563
8.86328
9.25897
9.62397
9.94182
10.2024
10.3991
10.5283
10.5813
10.5693
10.5116
10.4711
10.5248
10.7683
11.1292
11.5102
11.8559
12.1461
12.3621
12.4954
12.5392
12.4913
12.3565
12.1507
11.8947
11.6214
11.3233
10.9689
10.4495
9.48927
1094.83
1022.4
6.77847
7.50426
7.98329
8.39534
8.80586
9.20991
9.58832
9.92363
10.2043
10.4289
10.5858
10.6652
10.6689
10.6054
10.5136
10.4774
10.5966
10.8655
11.1993
11.5322
11.8308
12.0691
12.2345
12.3199
12.3207
12.2389
12.0837
11.8737
11.6176
11.3255
10.9767
10.4612
9.49446
1094.83
1022.32
6.72909
7.45364
7.92795
8.336
8.74656
9.15619
9.54604
9.89892
10.2039
10.4544
10.6418
10.7572
10.7934
10.7539
10.6554
10.5499
10.5355
10.6883
10.956
11.2637
11.5617
11.8163
12.0084
12.1274
12.1667
12.1259
12.0079
11.8272
11.5966
11.323
10.986
10.4845
9.53228
1094.9
1022.24
6.68416
7.40926
7.87925
8.28167
8.68979
9.10145
9.49806
9.86269
10.1849
10.459
10.6817
10.8371
10.9221
10.9273
10.8579
10.7381
10.6251
10.621
10.7698
11.0253
11.3138
11.5817
11.7983
11.9488
12.0243
12.0209
11.9418
11.7908
11.5828
11.3242
11.0016
10.516
9.58231
1095.05
1022.17
6.6487
7.37358
7.83918
8.23577
8.63995
9.05094
9.45052
9.82235
10.1571
10.45
10.6949
10.8902
11.0228
11.083
11.0681
10.9839
10.8578
10.7425
10.7295
10.843
11.0718
11.3412
11.5847
11.7699
11.8833
11.9186
11.8789
11.7586
11.5747
11.3344
11.0272
10.5608
9.65593
1095.31
1022.13
6.62319
7.34825
7.81108
8.20393
8.60361
9.01218
9.41148
9.78583
10.1269
10.4304
10.693
10.9109
11.0868
11.2041
11.2522
11.2309
11.1499
11.0274
10.8966
10.8499
10.9223
11.1147
11.3605
11.5812
11.7376
11.8158
11.8122
11.7297
11.5708
11.3494
11.0595
10.6155
9.74691
1095.6
1022.11
6.60913
7.332
7.79283
8.18465
8.583
8.98896
9.38595
9.75922
10.101
10.4074
10.6779
10.9117
11.1096
11.2696
11.3721
11.4117
11.3915
11.3143
11.1962
11.0737
10.9991
11.0533
11.191
11.3957
11.5832
11.7037
11.7393
11.6919
11.5599
11.359
11.0863
10.6617
9.82184
1095.8
1022.1
6.60132
7.32128
7.78166
8.17564
8.57878
8.9844
9.37886
9.74665
10.0827
10.3851
10.6559
10.8954
11.1076
11.2913
11.4378
11.528
11.5614
11.5355
11.4503
11.3278
11.2072
11.1382
11.1871
11.2991
11.4571
11.5992
11.6676
11.6492
11.5417
11.361
11.1064
10.7008
9.88288
1095.92
1022.11
6.59736
7.31332
7.77445
8.17332
8.57949
8.98806
9.38108
9.74609
10.0778
10.3735
10.6353
10.8704
11.0844
11.281
11.4539
11.5868
11.6688
11.6919
11.6523
11.5544
11.4266
11.3157
11.2654
11.306
11.4092
11.5237
11.6043
11.605
11.5209
11.3575
11.1167
10.7263
9.92524
1095.99
1022.13
6.59673
7.30652
7.77033
8.17762
8.59677
9.01401
9.40855
9.76953
10.0915
10.3756
10.6268
10.8503
11.0564
11.2527
11.439
11.6033
11.726
11.7951
11.7995
11.7421
11.6332
11.5098
11.4126
11.3806
11.4152
11.4921
11.555
11.5647
11.4967
11.3491
11.1251
10.7481
9.95674
1095.99
1022.16
6.59351
7.29678
7.76655
8.18707
8.62162
9.05159
9.45274
9.81303
10.1275
10.3994
10.6356
10.8438
11.0333
11.2166
11.3991
11.5764
11.7303
11.8397
11.8891
11.872
11.7948
11.6833
11.5679
11.4863
11.4658
11.4959
11.5399
11.5389
11.4758
11.34
11.1251
10.7544
9.95875
1095.96
1022.2
6.58463
7.27948
7.75823
8.19799
8.65534
9.10558
9.51934
9.88208
10.1905
10.4507
10.6714
10.8609
11.0302
11.192
11.3566
11.5289
11.6992
11.8357
11.9193
11.9452
11.9105
11.8269
11.7162
11.6125
11.5501
11.5378
11.5467
11.5338
11.4623
11.3285
11.1185
10.7503
9.94867
1095.86
1022.22
6.56105
7.24828
7.73881
8.2023
8.69052
9.16967
9.60201
9.97152
10.2775
10.5288
10.7356
10.9071
11.054
11.1898
11.3265
11.4746
11.6373
11.7851
11.8964
11.9484
11.954
11.9159
11.8399
11.745
11.6618
11.6103
11.579
11.5357
11.4502
11.3134
11.1034
10.7328
9.91363
1095.67
1022.22
6.52035
7.19933
7.70278
8.19464
8.72264
9.23858
9.69602
10.078
10.3871
10.6345
10.8318
10.9884
11.1146
11.2226
11.3241
11.4333
11.5615
11.6938
11.8123
11.9004
11.9365
11.9197