/*--------------------------------*- C++ -*----------------------------------*\
| =========                 |                                                 |
| \\      /  F ield         | OpenFOAM: The Open Source CFD Toolbox           |
|  \\    /   O peration     | Version:  2.0.x                                 |
|   \\  /    A nd           | Web:      www.OpenFOAM.org                      |
|    \\/     M anipulation  |                                                 |
\*---------------------------------------------------------------------------*/
FoamFile
{
    version     2.0;
    format      ascii;
    class       surfaceScalarField;
    location    "700";
    object      phi;
}
// * * * * * * * * * * * * * * * * * * * * * * * * * * * * * * * * * * * * * //

dimensions      [1 0 -1 0 0 0 0];

internalField   nonuniform List<scalar> 
228225
(
-5.46339e-06
3.42786e-06
1.98831e-06
-1.2689e-05
3.94955e-06
3.27602e-06
-1.87239e-05
2.59124e-06
3.44365e-06
-2.27139e-05
6.22215e-07
3.3677e-06
-2.39411e-05
-1.98801e-06
3.21517e-06
-2.30247e-05
-3.99745e-06
3.08107e-06
-2.05501e-05
-5.4391e-06
2.96448e-06
-1.69462e-05
-6.47105e-06
2.86703e-06
-1.25953e-05
-7.15306e-06
2.80216e-06
-7.6856e-06
-7.66486e-06
2.75509e-06
-2.5218e-06
-7.90592e-06
2.74207e-06
2.7342e-06
-8.00774e-06
2.75169e-06
7.95021e-06
-8.02578e-06
2.80971e-06
1.30551e-05
-7.98419e-06
2.87921e-06
1.79514e-05
-7.81413e-06
2.91782e-06
2.26195e-05
-7.60731e-06
2.93916e-06
2.7022e-05
-7.35368e-06
2.9512e-06
3.1106e-05
-7.04576e-06
2.96166e-06
3.48211e-05
-6.68742e-06
2.97231e-06
3.81335e-05
-6.29378e-06
2.98139e-06
4.09817e-05
-5.84194e-06
2.99376e-06
4.32967e-05
-5.32635e-06
3.0113e-06
4.51092e-05
-4.81274e-06
3.00032e-06
4.62106e-05
-4.10894e-06
3.00755e-06
4.67237e-05
-3.53484e-06
3.02169e-06
4.65377e-05
-2.86716e-06
3.05325e-06
4.56134e-05
-2.1644e-06
3.08873e-06
4.38763e-05
-1.39286e-06
3.13001e-06
4.09255e-05
-2.2691e-07
3.17772e-06
3.70761e-05
6.14728e-07
3.23469e-06
3.21134e-05
1.66827e-06
3.29455e-06
2.57162e-05
3.01699e-06
3.38031e-06
1.76898e-05
4.54483e-06
3.48172e-06
8.26432e-06
5.9574e-06
3.46825e-06
6.02753e-06
2.2368e-06
1.90847e-07
1.99154e-06
1.2455e-06
-1.30979e-06
3.10147e-06
2.34874e-06
-3.03854e-06
1.59196e-06
2.72806e-06
-4.14189e-06
-9.72687e-07
2.69829e-06
-3.95737e-06
-4.67289e-06
2.5004e-06
-2.59636e-06
-7.60561e-06
2.24717e-06
-3.54989e-07
-9.69303e-06
2.01259e-06
2.39653e-06
-1.10479e-05
1.82532e-06
5.42104e-06
-1.18641e-05
1.68654e-06
8.45775e-06
-1.23037e-05
1.60212e-06
1.14805e-05
-1.24836e-05
1.55496e-06
1.4424e-05
-1.24886e-05
1.53734e-06
1.71707e-05
-1.23067e-05
1.53431e-06
1.97575e-05
-1.20682e-05
1.49724e-06
2.21967e-05
-1.17333e-05
1.48003e-06
2.44329e-05
-1.13198e-05
1.47637e-06
2.64414e-05
-1.08469e-05
1.48471e-06
2.82124e-05
-1.03187e-05
1.50205e-06
2.97367e-05
-9.73835e-06
1.52658e-06
3.09956e-05
-9.10961e-06
1.557e-06
3.19981e-05
-8.43758e-06
1.59323e-06
3.27299e-05
-7.69928e-06
1.64118e-06
3.30242e-05
-6.82549e-06
1.71844e-06
3.30385e-05
-5.93038e-06
1.8072e-06
3.26158e-05
-4.98657e-06
1.87451e-06
3.18199e-05
-4.01257e-06
1.94131e-06
3.06697e-05
-3.04013e-06
2.02598e-06
2.90701e-05
-1.92196e-06
2.12877e-06
2.66828e-05
-1.04251e-07
2.26474e-06
2.3843e-05
1.0541e-06
2.40048e-06
2.04472e-05
2.49758e-06
2.56661e-06
1.59781e-05
4.75208e-06
2.73413e-06
1.01234e-05
7.52075e-06
2.87884e-06
3.92935e-06
9.44729e-06
2.70432e-06
8.28465e-06
1.67224e-06
1.19028e-06
-2.40776e-08
8.25249e-07
3.75055e-06
-1.04351e-06
1.58463e-06
7.2183e-06
-3.66693e-06
1.79104e-06
1.1032e-05
-6.58253e-06
1.79608e-06
1.40519e-05
-9.37448e-06
1.68154e-06
1.63496e-05
-1.14414e-05
1.53806e-06
1.80961e-05
-1.27717e-05
1.33213e-06
1.93464e-05
-1.35351e-05
1.23694e-06
2.02322e-05
-1.39204e-05
1.17047e-06
2.08752e-05
-1.40654e-05
1.11868e-06
2.13494e-05
-1.40497e-05
1.09187e-06
2.17028e-05
-1.39176e-05
1.07561e-06
2.20484e-05
-1.36784e-05
1.02604e-06
2.23557e-05
-1.33802e-05
1.00467e-06
2.26281e-05
-1.30121e-05
1.00642e-06
2.28609e-05
-1.25767e-05
1.02407e-06
2.30238e-05
-1.20594e-05
1.04962e-06
2.30972e-05
-1.14716e-05
1.07949e-06
2.30678e-05
-1.08219e-05
1.11296e-06
2.2924e-05
-1.01159e-05
1.15007e-06
2.2654e-05
-9.35862e-06
1.19107e-06
2.22669e-05
-8.54922e-06
1.23708e-06
2.18018e-05
-7.65414e-06
1.29374e-06
2.12562e-05
-6.72305e-06
1.33828e-06
2.05754e-05
-5.71054e-06
1.40479e-06
1.97146e-05
-4.63399e-06
1.48233e-06
1.86652e-05
-3.57088e-06
1.58027e-06
1.73392e-05
-2.30077e-06
1.70485e-06
1.58804e-05
-5.14725e-07
1.86939e-06
1.41795e-05
7.35303e-07
2.01979e-06
1.20161e-05
2.47271e-06
2.18841e-06
9.15977e-06
5.24358e-06
2.36496e-06
5.47656e-06
8.72951e-06
2.47458e-06
1.96678e-06
1.05993e-05
2.35795e-06
8.91266e-06
1.33877e-06
1.96737e-07
-8.74841e-07
6.53995e-07
2.04472e-06
-3.99709e-06
1.10555e-06
4.75342e-06
-7.44618e-06
1.07052e-06
7.74726e-06
-1.03889e-05
8.12491e-07
1.02685e-05
-1.24593e-05
5.63572e-07
1.21506e-05
-1.3699e-05
3.7551e-07
1.35593e-05
-1.44199e-05
2.39489e-07
1.46624e-05
-1.48225e-05
1.84202e-07
1.56205e-05
-1.5036e-05
1.57428e-07
1.65004e-05
-1.5104e-05
1.587e-07
1.73224e-05
-1.50604e-05
1.88719e-07
1.80749e-05
-1.49128e-05
2.42619e-07
1.87398e-05
-1.46441e-05
3.00775e-07
1.92787e-05
-1.42714e-05
3.5231e-07
1.96793e-05
-1.38092e-05
3.96518e-07
1.99359e-05
-1.32672e-05
4.33885e-07
2.00579e-05
-1.26566e-05
4.7517e-07
2.0057e-05
-1.19922e-05
5.21449e-07
1.99406e-05
-1.12771e-05
5.71679e-07
1.97133e-05
-1.05141e-05
6.25518e-07
1.93753e-05
-9.70367e-06
6.83074e-07
1.89268e-05
-8.84586e-06
7.45138e-07
1.8393e-05
-7.93547e-06
8.15188e-07
1.77118e-05
-6.95153e-06
9.09622e-07
1.69096e-05
-5.91245e-06
1.00415e-06
1.59939e-05
-4.82066e-06
1.1024e-06
1.49061e-05
-3.69774e-06
1.21469e-06
1.36704e-05
-2.4152e-06
1.35014e-06
1.23118e-05
-6.72035e-07
1.516e-06
1.07228e-05
6.50953e-07
1.67342e-06
8.95079e-06
2.38626e-06
1.85848e-06
6.62318e-06
5.51404e-06
2.0572e-06
3.71377e-06
9.43016e-06
2.20881e-06
1.15295e-06
1.11496e-05
2.01052e-06
9.01814e-06
1.04747e-06
6.76944e-07
-1.88393e-06
3.32041e-07
2.55115e-06
-6.25232e-06
3.80915e-07
4.87231e-06
-9.99276e-06
2.25338e-07
7.00267e-06
-1.26017e-05
8.24206e-08
8.7461e-06
-1.41982e-05
-4.6209e-09
1.02402e-05
-1.51686e-05
-2.45567e-08
1.15883e-05
-1.57587e-05
-9.29645e-09
1.28199e-05
-1.60931e-05
3.90242e-08
1.3947e-05
-1.62312e-05
6.80271e-08
1.49544e-05
-1.61958e-05
8.43693e-08
1.5837e-05
-1.60229e-05
7.99725e-08
1.65895e-05
-1.57506e-05
8.5218e-08
1.72182e-05
-1.53653e-05
9.24549e-08
1.76875e-05
-1.48491e-05
1.08394e-07
1.79946e-05
-1.42423e-05
1.26066e-07
1.81477e-05
-1.35722e-05
1.51925e-07
1.81739e-05
-1.28786e-05
1.9583e-07
1.8085e-05
-1.21492e-05
2.45836e-07
1.78862e-05
-1.13789e-05
3.00476e-07
1.7583e-05
-1.05677e-05
3.56915e-07
1.71789e-05
-9.71627e-06
4.16645e-07
1.66764e-05
-8.82404e-06
4.80755e-07
1.60765e-05
-7.88804e-06
5.52383e-07
1.53908e-05
-6.90095e-06
6.35229e-07
1.46262e-05
-5.86285e-06
7.15008e-07
1.377e-05
-4.7733e-06
8.08875e-07
1.27752e-05
-3.62244e-06
9.19523e-07
1.16647e-05
-2.35558e-06
1.05086e-06
1.04561e-05
-6.82479e-07
1.21906e-06
9.05029e-06
6.75926e-07
1.38093e-06
7.44806e-06
2.4368e-06
1.55175e-06
5.40972e-06
5.81196e-06
1.74047e-06
3.04462e-06
9.9251e-06
1.87021e-06
9.56335e-07
1.15327e-05
1.7053e-06
9.09775e-06
8.7673e-07
6.55545e-07
-2.74478e-06
2.05166e-07
2.2274e-06
-8.01335e-06
1.89067e-07
4.08085e-06
-1.19176e-05
7.13536e-08
5.89525e-06
-1.43791e-05
-3.71095e-08
7.55856e-06
-1.57468e-05
-1.14796e-07
9.05405e-06
-1.64994e-05
-1.6473e-07
1.03962e-05
-1.68922e-05
-2.08729e-07
1.15845e-05
-1.70381e-05
-2.43275e-07
1.26205e-05
-1.70102e-05
-2.57061e-07
1.35145e-05
-1.68357e-05
-2.54092e-07
1.42321e-05
-1.65116e-05
-2.28965e-07
1.47538e-05
-1.6066e-05
-2.0627e-07
1.50977e-05
-1.55241e-05
-1.8512e-07
1.53352e-05
-1.49277e-05
-1.58973e-07
1.54895e-05
-1.4277e-05
-1.19642e-07
1.55676e-05
-1.35761e-05
-7.42375e-08
1.55705e-05
-1.28378e-05
-4.3704e-08
1.54934e-05
-1.20544e-05
-1.77144e-08
1.53252e-05
-1.12269e-05
1.62384e-08
1.50649e-05
-1.03655e-05
5.81464e-08
1.47185e-05
-9.47663e-06
1.06708e-07
1.42933e-05
-8.56156e-06
1.62766e-07
1.37929e-05
-7.6158e-06
2.28162e-07
1.32195e-05
-6.63133e-06
3.03749e-07
1.25796e-05
-5.60568e-06
3.82662e-07
1.18607e-05
-4.5351e-06
4.80684e-07
1.10568e-05
-3.41405e-06
5.95505e-07
1.01555e-05
-2.18508e-06
7.30884e-07
9.17396e-06
-6.04955e-07
9.03969e-07
7.98006e-06
7.94675e-07
1.07515e-06
6.43249e-06
2.7068e-06
1.27757e-06
4.54425e-06
6.18645e-06
1.51374e-06
2.48314e-06
1.03411e-05
1.64516e-06
7.10843e-07
1.1838e-05
1.46695e-06
9.10944e-06
6.99153e-07
6.83827e-07
-3.46788e-06
3.91454e-08
2.09061e-06
-9.33444e-06
-8.57889e-08
3.67781e-06
-1.32838e-05
-2.21083e-07
5.19188e-06
-1.55657e-05
-3.27558e-07
6.59324e-06
-1.67652e-05
-3.82973e-07
7.8814e-06
-1.73678e-05
-4.19832e-07
9.06204e-06
-1.76352e-05
-4.37627e-07
1.01483e-05
-1.76802e-05
-4.44089e-07
1.11185e-05
-1.75334e-05
-4.47081e-07
1.19655e-05
-1.72365e-05
-4.46336e-07
1.26926e-05
-1.6792e-05
-4.46569e-07
1.33187e-05
-1.62537e-05
-4.38485e-07
1.38365e-05
-1.56249e-05
-4.17042e-07
1.42497e-05
-1.4951e-05
-3.89914e-07
1.45631e-05
-1.42284e-05
-3.62049e-07
1.47687e-05
-1.34476e-05
-3.34146e-07
1.48329e-05
-1.26011e-05
-3.00899e-07
1.47422e-05
-1.17023e-05
-2.61334e-07
1.45139e-05
-1.07765e-05
-2.22104e-07
1.41653e-05
-9.84043e-06
-1.76562e-07
1.37136e-05
-8.9016e-06
-1.23349e-07
1.318e-05
-7.96321e-06
-6.4678e-08
1.25846e-05
-7.02166e-06
1.20511e-09
1.19466e-05
-6.06805e-06
7.47587e-08
1.1287e-05
-5.0944e-06
1.48301e-07
1.05996e-05
-4.08355e-06
2.35812e-07
9.85581e-06
-3.00412e-06
3.33903e-07
9.01541e-06
-1.78876e-06
4.44088e-07
8.11088e-06
-2.82651e-07
5.82226e-07
7.07782e-06
1.0945e-06
7.33254e-07
5.69589e-06
3.17145e-06
9.17292e-07
3.95112e-06
6.73807e-06
1.19316e-06
2.15273e-06
1.07731e-05
1.36634e-06
6.215e-07
1.21365e-05
1.23272e-06
9.15277e-06
5.78165e-07
6.36363e-07
-4.10387e-06
-4.508e-10
1.93167e-06
-1.05392e-05
-9.05865e-08
3.38246e-06
-1.45618e-05
-1.72882e-07
4.77626e-06
-1.67052e-05
-2.54238e-07
6.05685e-06
-1.77298e-05
-3.15975e-07
7.24518e-06
-1.81859e-05
-3.70185e-07
8.35232e-06
-1.83288e-05
-4.13585e-07
9.37859e-06
-1.82625e-05
-4.43989e-07
1.02684e-05
-1.79548e-05
-4.6834e-07
1.09842e-05
-1.74664e-05
-4.85981e-07
1.15635e-05
-1.68774e-05
-4.93842e-07
1.20331e-05
-1.62248e-05
-4.98549e-07
1.24295e-05
-1.55181e-05
-5.03077e-07
1.27419e-05
-1.47566e-05
-5.06869e-07
1.2955e-05
-1.39366e-05
-5.04817e-07
1.306e-05
-1.30578e-05
-4.94846e-07
1.30548e-05
-1.21197e-05
-4.76221e-07
1.29403e-05
-1.1139e-05
-4.48802e-07
1.27261e-05
-1.01496e-05
-4.12691e-07
1.24272e-05
-9.17033e-06
-3.71273e-07
1.20574e-05
-8.20613e-06
-3.25642e-07
1.16248e-05
-7.25838e-06
-2.72197e-07
1.1139e-05
-6.32476e-06
-2.11158e-07
1.06127e-05
-5.39856e-06
-1.43172e-07
1.00612e-05
-4.46679e-06
-7.6204e-08
9.47675e-06
-3.50229e-06
3.21766e-09
8.82951e-06
-2.4521e-06
9.51898e-08
8.07326e-06
-1.2377e-06
2.05161e-07
7.25331e-06
1.907e-07
3.4656e-07
6.35609e-06
1.49137e-06
5.00305e-07
5.02276e-06
3.78645e-06
7.18285e-07
3.39928e-06
7.38666e-06
9.74841e-07
1.80114e-06
1.12267e-05
1.14452e-06
4.70632e-07
1.24359e-05
1.03104e-06
9.14632e-06
4.77081e-07
5.80052e-07
-4.62246e-06
-6.14937e-08
1.69936e-06
-1.14937e-05
-1.64829e-07
2.90714e-06
-1.55224e-05
-2.47211e-07
4.05385e-06
-1.75117e-05
-3.403e-07
5.13603e-06
-1.84019e-05
-4.10108e-07
6.16408e-06
-1.87467e-05
-4.6726e-07
7.10678e-06
-1.87622e-05
-5.09306e-07
7.89265e-06
-1.85097e-05
-5.38664e-07
8.56254e-06
-1.80574e-05
-5.67349e-07
9.15836e-06
-1.74718e-05
-5.90399e-07
9.68593e-06
-1.67946e-05
-6.10396e-07
1.01116e-05
-1.60244e-05
-6.26045e-07
1.04107e-05
-1.51818e-05
-6.35499e-07
1.05826e-05
-1.42911e-05
-6.37368e-07
1.06512e-05
-1.33735e-05
-6.31707e-07
1.06475e-05
-1.24355e-05
-6.18665e-07
1.05906e-05
-1.14647e-05
-5.98065e-07
1.04767e-05
-1.04552e-05
-5.69842e-07
1.02984e-05
-9.43687e-06
-5.34511e-07
1.00676e-05
-8.44657e-06
-4.92959e-07
9.79433e-06
-7.48693e-06
-4.45931e-07
9.48377e-06
-6.5528e-06
-3.9502e-07
9.13298e-06
-5.63664e-06
-3.37347e-07
8.73848e-06
-4.72978e-06
-2.74288e-07
8.30547e-06
-3.8205e-06
-2.13282e-07
7.83262e-06
-2.88495e-06
-1.44494e-07
7.32094e-06
-1.87269e-06
-6.77323e-08
6.7457e-06
-6.83942e-07
2.14631e-08
6.16133e-06
6.41294e-07
1.33765e-07
5.36442e-06
2.02429e-06
2.63983e-07
4.23793e-06
4.45662e-06
4.56293e-07
2.84244e-06
8.07827e-06
7.03865e-07
1.47853e-06
1.16933e-05
8.97246e-07
3.44811e-07
1.27385e-05
8.31083e-07
9.12181e-06
3.69313e-07
5.90614e-07
-5.15898e-06
-5.40859e-08
1.66319e-06
-1.24887e-05
-7.75714e-08
2.76821e-06
-1.65219e-05
-1.05512e-07
3.79426e-06
-1.83479e-05
-1.8983e-07
4.74694e-06
-1.908e-05
-2.7458e-07
5.64154e-06
-1.92862e-05
-3.55151e-07
6.46973e-06
-1.91715e-05
-4.18866e-07
7.14631e-06
-1.87081e-05
-4.78192e-07
7.71292e-06
-1.80905e-05
-5.33508e-07
8.15468e-06
-1.73327e-05
-5.80836e-07
8.4488e-06
-1.64667e-05
-6.21996e-07
8.608e-06
-1.55288e-05
-6.54826e-07
8.66436e-06
-1.45595e-05
-6.78634e-07
8.65334e-06
-1.35868e-05
-6.93245e-07
8.60213e-06
-1.26234e-05
-6.98833e-07
8.53227e-06
-1.16698e-05
-6.95842e-07
8.46536e-06
-1.07134e-05
-6.84471e-07
8.40344e-06
-9.72891e-06
-6.64412e-07
8.31873e-06
-8.71641e-06
-6.35759e-07
8.19889e-06
-7.72657e-06
-6.00177e-07
8.04545e-06
-6.77462e-06
-5.58887e-07
7.8598e-06
-5.85516e-06
-5.12022e-07
7.63997e-06
-4.95755e-06
-4.59288e-07
7.38117e-06
-4.06986e-06
-4.01146e-07
7.08019e-06
-3.17672e-06
-3.42834e-07
6.72222e-06
-2.25209e-06
-2.7494e-07
6.3009e-06
-1.2518e-06
-1.99638e-07
5.82499e-06
-9.56683e-08
-1.12425e-07
5.38359e-06
1.09719e-06
-1.45741e-08
4.62519e-06
2.68362e-06
9.89537e-08
3.58803e-06
5.22387e-06
2.69769e-07
2.34803e-06
8.82209e-06
4.96079e-07
1.18133e-06
1.21758e-05
6.84069e-07
2.27123e-07
1.30461e-05
6.46483e-07
9.08599e-06
2.62937e-07
5.59389e-07
-5.6727e-06
-4.56509e-08
1.51344e-06
-1.34231e-05
-1.9607e-08
2.4183e-06
-1.73931e-05
-3.36125e-08
3.21971e-06
-1.90167e-05
-1.32567e-07
3.94876e-06
-1.95777e-05
-2.31306e-07
4.60523e-06
-1.96213e-05
-3.21315e-07
5.12868e-06
-1.93031e-05
-3.91817e-07
5.59049e-06
-1.86987e-05
-4.71196e-07
5.93097e-06
-1.78892e-05
-5.41756e-07
6.1136e-06
-1.69087e-05
-6.06669e-07
6.15939e-06
-1.58503e-05
-6.62155e-07
6.12648e-06
-1.47904e-05
-7.05499e-07
6.06584e-06
-1.37634e-05
-7.35436e-07
6.00726e-06
-1.27759e-05
-7.52355e-07
5.96325e-06
-1.18216e-05
-7.57771e-07
5.93658e-06
-1.08896e-05
-7.53477e-07
5.92964e-06
-9.96548e-06
-7.40946e-07
5.95153e-06
-9.02991e-06
-7.20906e-07
5.99087e-06
-8.06238e-06
-6.93384e-07
6.00806e-06
-7.08397e-06
-6.59796e-07
5.99719e-06
-6.14209e-06
-6.21674e-07
5.95652e-06
-5.23541e-06
-5.79094e-07
5.88174e-06
-4.35132e-06
-5.31482e-07
5.76704e-06
-3.47543e-06
-4.79752e-07
5.60894e-06
-2.59042e-06
-4.28239e-07
5.39696e-06
-1.67057e-06
-3.69575e-07
5.1308e-06
-6.82006e-07
-3.03676e-07
4.83855e-06
4.24912e-07
-2.28381e-07
4.50908e-06
1.57168e-06
-1.45102e-07
3.88029e-06
3.34671e-06
-3.43929e-08
2.98118e-06
6.00004e-06
1.22831e-07
1.91044e-06
9.56546e-06
3.27272e-07
9.3121e-07
1.2653e-05
5.01924e-07
1.47723e-07
1.33432e-05
4.86214e-07
9.05225e-06
1.8145e-07
5.62497e-07
-6.24097e-06
5.73427e-09
1.41158e-06
-1.44128e-05
1.40556e-07
2.12665e-06
-1.82855e-05
1.77366e-07
2.72904e-06
-1.96979e-05
7.88212e-08
3.27706e-06
-2.00851e-05
-4.07046e-08
3.77261e-06
-1.99592e-05
-1.57654e-07
4.13074e-06
-1.93896e-05
-2.71631e-07
4.34709e-06
-1.85389e-05
-3.76204e-07
4.36736e-06
-1.74323e-05
-4.77187e-07
4.25134e-06
-1.62219e-05
-5.70808e-07
4.09062e-06
-1.50396e-05
-6.50016e-07
3.95331e-06
-1.39427e-05
-7.10337e-07
3.87142e-06
-1.29298e-05
-7.51759e-07
3.85013e-06
-1.19779e-05
-7.7669e-07
3.88017e-06
-1.10637e-05
-7.88005e-07
3.94747e-06
-1.01686e-05
-7.88376e-07
4.03978e-06
-9.27776e-06
-7.80059e-07
4.15157e-06
-8.37738e-06
-7.64351e-07
4.28359e-06
-7.45271e-06
-7.4172e-07
4.40957e-06
-6.49746e-06
-7.12528e-07
4.50984e-06
-5.56391e-06
-6.78505e-07
4.57788e-06
-4.66327e-06
-6.4022e-07
4.60831e-06
-3.7844e-06
-5.97407e-07
4.59672e-06
-2.91293e-06
-5.5098e-07
4.54433e-06
-2.03373e-06
-5.0437e-07
4.45034e-06
-1.1257e-06
-4.50975e-07
4.31127e-06
-1.523e-07
-3.9073e-07
4.15921e-06
8.98329e-07
-3.21484e-07
3.80546e-06
2.1689e-06
-2.43636e-07
3.24976e-06
4.04061e-06
-1.38426e-07
2.46798e-06
6.77249e-06
9.10902e-09
1.54978e-06
1.02868e-05
1.96664e-07
7.32515e-07
1.31157e-05
3.5437e-07
9.66377e-08
1.36249e-05
3.53822e-07
9.03225e-06
1.16634e-07
4.89636e-07
-6.79785e-06
6.71521e-08
1.11344e-06
-1.53221e-05
2.854e-07
1.5071e-06
-1.90237e-05
3.44452e-07
1.7678e-06
-2.01997e-05
2.41011e-07
1.9732e-06
-2.04032e-05
1.12689e-07
2.11719e-06
-2.00891e-05
-1.41352e-08
2.21163e-06
-1.93353e-05
-1.48805e-07
2.14709e-06
-1.81927e-05
-2.81704e-07
1.9559e-06
-1.68228e-05
-4.1833e-07
1.7396e-06
-1.54614e-05
-5.44219e-07
1.57859e-06
-1.42334e-05
-6.45259e-07
1.50677e-06
-1.31531e-05
-7.17851e-07
1.52368e-06
-1.21813e-05
-7.65418e-07
1.61296e-06
-1.1274e-05
-7.93279e-07
1.75471e-06
-1.03994e-05
-8.06088e-07
1.93125e-06
-9.53778e-06
-8.07356e-07
2.12967e-06
-8.67649e-06
-7.99733e-07
2.34233e-06
-7.80504e-06
-7.85039e-07
2.56679e-06
-6.91283e-06
-7.64387e-07
2.80063e-06
-5.99307e-06
-7.38282e-07
3.01051e-06
-5.0656e-06
-7.08248e-07
3.18652e-06
-4.16475e-06
-6.74587e-07
3.32526e-06
-3.28624e-06
-6.36973e-07
3.42594e-06
-2.41752e-06
-5.96156e-07
3.49212e-06
-1.54517e-06
-5.54819e-07
3.52245e-06
-6.48613e-07
-5.07503e-07
3.50281e-06
3.20355e-07
-4.53102e-07
3.44371e-06
1.34947e-06
-3.92177e-07
3.1667e-06
2.76273e-06
-3.16994e-07
2.68634e-06
4.73842e-06
-2.17658e-07
2.0069e-06
7.5325e-06
-8.07956e-08
1.22892e-06
1.09734e-05
9.12638e-08
5.61056e-07
1.35507e-05
2.32623e-07
5.54632e-08
1.38845e-05
2.45728e-07
9.01516e-06
7.25322e-08
3.20021e-07
-7.27535e-06
1.57231e-07
6.02219e-07
-1.6086e-05
4.81603e-07
6.22441e-07
-1.96261e-05
5.82083e-07
5.44413e-07
-2.06074e-05
4.85634e-07
4.51388e-07
-2.06544e-05
3.44216e-07
3.24918e-07
-2.01535e-05
1.90833e-07
1.39858e-07
-1.91988e-05
4.84469e-08
-7.73684e-08
-1.78591e-05
-1.164e-07
-2.71548e-07
-1.63401e-05
-2.88617e-07
-3.98985e-07
-1.48848e-05
-4.49262e-07
-4.38182e-07
-1.36172e-05
-5.77057e-07
-3.81806e-07
-1.25404e-05
-6.69182e-07
-2.42755e-07
-1.15894e-05
-7.3105e-07
-3.94355e-08
-1.07076e-05
-7.69735e-07
2.08853e-07
-9.85677e-06
-7.90976e-07
4.85629e-07
-9.0156e-06
-7.99034e-07
7.7833e-07
-8.17218e-06
-7.97093e-07
1.07877e-06
-7.31807e-06
-7.87498e-07
1.38303e-06
-6.44544e-06
-7.71731e-07
1.68814e-06
-5.54753e-06
-7.50742e-07
1.97468e-06
-4.62715e-06
-7.25075e-07
2.23207e-06
-3.72641e-06
-6.95825e-07
2.45438e-06
-2.84563e-06
-6.63014e-07
2.6384e-06
-1.97447e-06
-6.27179e-07
2.78474e-06
-1.10139e-06
-5.90227e-07
2.89187e-06
-2.0832e-07
-5.47539e-07
2.96275e-06
7.47198e-07
-4.97868e-07
2.88848e-06
1.86462e-06
-4.41061e-07
2.6594e-06
3.36103e-06
-3.69456e-07
2.24529e-06
5.42724e-06
-2.74991e-07
1.65308e-06
8.27153e-06
-1.47115e-07
9.9437e-07
1.16214e-05
1.04258e-08
4.49434e-07
1.39551e-05
1.40269e-07
4.19351e-08
1.41239e-05
1.67639e-07
9.01123e-06
4.58494e-08
7.83954e-08
-7.59315e-06
2.39084e-07
-7.92991e-08
-1.65593e-05
6.30769e-07
-4.66567e-07
-1.99976e-05
7.58644e-07
-9.04101e-07
-2.08526e-05
6.82661e-07
-1.29208e-06
-2.08182e-05
5.51686e-07
-1.6135e-06
-2.02321e-05
3.99878e-07
-1.87291e-06
-1.91651e-05
2.25558e-07
-2.02647e-06
-1.77512e-05
4.54889e-08
-2.04959e-06
-1.61789e-05
-1.38178e-07
-1.98663e-06
-1.46463e-05
-3.01615e-07
-1.85938e-06
-1.32934e-05
-4.51216e-07
-1.68571e-06
-1.21383e-05
-5.75852e-07
-1.47605e-06
-1.1138e-05
-6.61218e-07
-1.22186e-06
-1.02442e-05
-7.1776e-07
-9.29427e-07
-9.39725e-06
-7.52056e-07
-6.08896e-07
-8.56649e-06
-7.69743e-07
-2.7135e-07
-7.73473e-06
-7.75094e-07
7.38973e-08
-6.89205e-06
-7.71367e-07
4.20487e-07
-6.03138e-06
-7.60757e-07
7.65321e-07
-5.14781e-06
-7.44667e-07
1.10558e-06
-4.24366e-06
-7.23859e-07
1.42459e-06
-3.34603e-06
-6.99506e-07
1.71312e-06
-2.46243e-06
-6.71843e-07
1.96484e-06
-1.58511e-06
-6.41201e-07
2.17585e-06
-7.03516e-07
-6.09003e-07
2.33853e-06
2.00416e-07
-5.71555e-07
2.4499e-06
1.16339e-06
-5.27725e-07
2.4087e-06
2.37999e-06
-4.74367e-07
2.21385e-06
3.96291e-06
-4.07289e-07
1.84888e-06
6.1111e-06
-3.19197e-07
1.33435e-06
8.98689e-06
-2.01134e-07
7.84875e-07
1.2228e-05
-5.73342e-08
3.49191e-07
1.43271e-05
6.33156e-08
2.59248e-08
1.43426e-05
1.04174e-07
9.01221e-06
2.4932e-08
-1.65227e-07
-7.73895e-06
3.10582e-07
-7.01063e-07
-1.67753e-05
7.51655e-07
-1.33788e-06
-2.02767e-05
9.15679e-07
-1.96098e-06
-2.11104e-05
8.80744e-07
-2.47753e-06
-2.10662e-05
7.64297e-07
-2.85431e-06
-2.0473e-05
6.1748e-07
-3.04906e-06
-1.9419e-05
4.48475e-07
-3.0435e-06
-1.80196e-05
2.62648e-07
-2.85934e-06
-1.64345e-05
7.11534e-08
-2.56546e-06
-1.48256e-05
-1.14802e-07
-2.25688e-06
-1.333e-05
-2.72225e-07
-1.98752e-06
-1.20144e-05
-3.93406e-07
-1.73591e-06
-1.08835e-05
-5.06311e-07
-1.48549e-06
-9.89704e-06
-5.9774e-07
-1.22255e-06
-9.00211e-06
-6.58245e-07
-9.32898e-07
-8.16015e-06
-6.96155e-07
-6.18168e-07
-7.33268e-06
-7.16932e-07
-2.8454e-07
-6.50072e-06
-7.25107e-07
6.19169e-08
-5.65402e-06
-7.23968e-07
4.1675e-07
-4.78709e-06
-7.15696e-07
7.73838e-07
-3.89917e-06
-7.01728e-07
1.11177e-06
-3.00058e-06
-6.83528e-07
1.41988e-06
-2.10899e-06
-6.61693e-07
1.69242e-06
-1.22119e-06
-6.36603e-07
1.92685e-06
-3.28805e-07
-6.09292e-07
2.11598e-06
5.87773e-07
-5.76644e-07
2.19722e-06
1.61925e-06
-5.37287e-07
2.16021e-06
2.90486e-06
-4.88107e-07
1.97961e-06
4.56893e-06
-4.25717e-07
1.64003e-06
6.79419e-06
-3.43828e-07
1.175e-06
9.68644e-06
-2.3483e-07
7.01814e-07
1.28058e-05
-1.04969e-07
3.36908e-07
1.46842e-05
7.51605e-09
5.36576e-08
1.45646e-05
6.07345e-08
9.04592e-06
1.99376e-08
-3.1673e-07
-7.76144e-06
3.38743e-07
-1.07544e-06
-1.67974e-05
7.80435e-07
-1.92088e-06
-2.0397e-05
9.65584e-07
-2.62448e-06
-2.13848e-05
9.77776e-07
-3.20682e-06
-2.14099e-05
9.25852e-07
-3.61015e-06
-2.08998e-05
8.29969e-07
-3.78512e-06
-1.99485e-05
7.04325e-07
-3.7151e-06
-1.86395e-05
5.49669e-07
-3.42648e-06
-1.70902e-05
3.66918e-07
-2.98943e-06
-1.54319e-05
1.68941e-07
-2.50361e-06
-1.37891e-05
-2.70128e-08
-2.04973e-06
-1.22665e-05
-2.02159e-07
-1.676e-06
-1.09223e-05
-3.35189e-07
-1.38707e-06
-9.75609e-06
-4.30105e-07
-1.13251e-06
-8.74064e-06
-5.16239e-07
-8.82726e-07
-7.82611e-06
-5.84031e-07
-6.21282e-07
-6.96724e-06
-6.2707e-07
-3.36415e-07
-6.1334e-06
-6.52364e-07
-3.04909e-08
-5.29562e-06
-6.64489e-07
2.90857e-07
-4.44175e-06
-6.6686e-07
6.20022e-07
-3.56666e-06
-6.61844e-07
9.42587e-07
-2.67234e-06
-6.50966e-07
1.24558e-06
-1.77645e-06
-6.35692e-07
1.51983e-06
-8.78836e-07
-6.16778e-07
1.75668e-06
2.94258e-08
-5.95251e-07
1.94152e-06
9.70627e-07
-5.67887e-07
2.0094e-06
2.08435e-06
-5.33209e-07
1.95763e-06
3.44578e-06
-4.89418e-07
1.77099e-06
5.18844e-06
-4.33196e-07
1.44402e-06
7.47964e-06
-3.58854e-07
1.01907e-06
1.03708e-05
-2.59767e-07
6.11329e-07
1.33554e-05
-1.42084e-07
3.08265e-07
1.50237e-05
-3.68231e-08
6.15183e-08
1.47844e-05
2.64085e-08
9.09034e-06
1.70804e-08
-4.01374e-07
-7.72255e-06
3.61957e-07
-1.21886e-06
-1.67814e-05
8.0103e-07
-2.14568e-06
-2.04613e-05
9.90787e-07
-2.94142e-06
-2.1616e-05
1.02677e-06
-3.5802e-06
-2.1781e-05
1.00979e-06
-4.05895e-06
-2.13937e-05
9.72404e-07
-4.32382e-06
-2.059e-05
9.06119e-07
-4.3257e-06
-1.94384e-05
8.00532e-07
-4.05866e-06
-1.80165e-05
6.58963e-07
-3.56429e-06
-1.64147e-05
4.88158e-07
-2.9268e-06
-1.47262e-05
2.99315e-07
-2.25605e-06
-1.30437e-05
1.06133e-07
-1.64863e-06
-1.14551e-05
-7.49298e-08
-1.14968e-06
-1.00255e-05
-2.29887e-07
-7.70094e-07
-8.77864e-06
-3.41851e-07
-4.83868e-07
-7.69199e-06
-4.20567e-07
-2.37239e-07
-6.72482e-06
-4.89272e-07
-2.05069e-10
-5.8288e-06
-5.41845e-07
2.43488e-07
-4.96522e-06
-5.74292e-07
5.02343e-07
-4.10863e-06
-5.9216e-07
7.7351e-07
-3.23882e-06
-5.99186e-07
1.0497e-06
-2.35076e-06
-5.97951e-07
1.31607e-06
-1.45241e-06
-5.90583e-07
1.55782e-06
-5.42325e-07
-5.78436e-07
1.77022e-06
3.79408e-07
-5.62554e-07
1.90641e-06
1.37445e-06
-5.40201e-07
1.94723e-06
2.55387e-06
-5.10559e-07
1.87331e-06
3.9919e-06
-4.72464e-07
1.67326e-06
5.81132e-06
-4.23143e-07
1.35329e-06
8.15682e-06
-3.57543e-07
9.60562e-07
1.10325e-05
-2.69311e-07
6.02421e-07
1.38769e-05
-1.63622e-07
3.33187e-07
1.53583e-05
-6.56888e-08
9.46798e-08
1.50172e-05
5.20252e-09
9.16394e-06
2.10607e-08
-5.28965e-07
-7.57248e-06
3.7838e-07
-1.51484e-06
-1.65701e-05
7.74291e-07
-2.53501e-06
-2.03966e-05
9.55262e-07
-3.48124e-06
-2.16856e-05
1.01568e-06
-4.27171e-06
-2.19954e-05
1.00468e-06
-4.85108e-06
-2.18047e-05
9.90281e-07
-5.19193e-06
-2.12054e-05
9.56085e-07
-5.26918e-06
-2.02665e-05
9.05132e-07
-5.05993e-06
-1.90456e-05
8.19625e-07
-4.57604e-06
-1.76036e-05
7.04732e-07
-3.86358e-06
-1.6004e-05
5.65108e-07
-3.00278e-06
-1.43111e-05
4.06366e-07
-2.10162e-06
-1.2592e-05
2.35455e-07
-1.27081e-06
-1.09198e-05
6.32706e-08
-5.88463e-07
-9.36552e-06
-9.57541e-08
-7.39197e-08
-7.97877e-06
-2.28044e-07
2.90182e-07
-6.76668e-06
-3.22477e-07
5.48886e-07
-5.69942e-06
-3.88285e-07
7.62596e-07
-4.73444e-06
-4.44687e-07
9.64129e-07
-3.82388e-06
-4.86472e-07
1.17051e-06
-2.93392e-06
-5.11467e-07
1.38372e-06
-2.03984e-06
-5.24303e-07
1.58953e-06
-1.13059e-06
-5.27808e-07
1.77281e-06
-2.01375e-07
-5.24404e-07
1.9312e-06
7.36039e-07
-5.15198e-07
2.00913e-06
1.79506e-06
-4.98745e-07
2.00015e-06
3.03762e-06
-4.75009e-07
1.88938e-06
4.54544e-06
-4.43058e-07
1.66648e-06
6.43444e-06
-4.00537e-07
1.34239e-06
8.82336e-06
-3.42795e-07
9.66183e-07
1.16744e-05
-2.66025e-07
6.3512e-07
1.43801e-05
-1.72399e-07
3.73937e-07
1.57008e-05
-8.16125e-08
1.24461e-07
1.52715e-05
-5.25988e-09
9.25885e-06
2.95465e-08
-6.33025e-07
-7.28264e-06
3.42781e-07
-1.7592e-06
-1.60931e-05
6.49e-07
-2.85393e-06
-2.01084e-05
8.06334e-07
-3.81862e-06
-2.16213e-05
9.0027e-07
-4.6568e-06
-2.2089e-05
9.316e-07
-5.30393e-06
-2.20891e-05
9.31387e-07
-5.71215e-06
-2.17106e-05
9.13262e-07
-5.85288e-06
-2.10121e-05
8.86111e-07
-5.71707e-06
-2.0036e-05
8.54428e-07
-5.30108e-06
-1.88189e-05
7.99166e-07
-4.6278e-06
-1.73998e-05
7.22342e-07
-3.74197e-06
-1.58225e-05
6.25351e-07
-2.7112e-06
-1.41322e-05
5.09251e-07
-1.62855e-06
-1.23779e-05
3.75161e-07
-6.02961e-07
-1.06184e-05
2.26991e-07
2.65982e-07
-8.92247e-06
7.45142e-08
9.22239e-07
-7.35587e-06
-6.7295e-08
1.37032e-06
-5.96152e-06
-1.86192e-07
1.64871e-06
-4.74137e-06
-2.71654e-07
1.81943e-06
-3.66134e-06
-3.33437e-07
1.94312e-06
-2.67296e-06
-3.848e-07
2.04913e-06
-1.72654e-06
-4.19462e-07
2.14665e-06
-7.8868e-07
-4.3958e-07
2.23217e-06
1.61881e-07
-4.48913e-07
2.29997e-06
1.11679e-06
-4.48701e-07
2.29945e-06
2.23625e-06
-4.40829e-07
2.21961e-06
3.54241e-06
-4.25125e-07
2.05153e-06
5.11439e-06
-4.01077e-07
1.78799e-06
7.0643e-06
-3.66534e-07
1.43863e-06
9.4905e-06
-3.18009e-07
1.05297e-06
1.23116e-05
-2.51679e-07
7.211e-07
1.4881e-05
-1.69165e-07
4.4433e-07
1.60629e-05
-8.54261e-08
1.66431e-07
1.55551e-05
-6.0656e-09
9.38386e-06
4.14039e-08
-6.2673e-07
-6.95382e-06
2.97752e-07
-1.57391e-06
-1.56662e-05
5.20237e-07
-2.49067e-06
-1.98225e-05
6.30841e-07
-3.32651e-06
-2.15052e-05
7.19628e-07
-4.06295e-06
-2.21417e-05
7.89098e-07
-4.67478e-06
-2.22842e-05
8.06815e-07
-5.09596e-06
-2.20912e-05
8.01737e-07
-5.28952e-06
-2.16053e-05
7.86747e-07
-5.23687e-06
-2.08567e-05
7.67925e-07
-4.9386e-06
-1.98672e-05
7.49877e-07
-4.40045e-06
-1.86588e-05
7.20692e-07
-3.6448e-06
-1.72601e-05
6.81773e-07
-2.70985e-06
-1.56995e-05
6.32113e-07
-1.64661e-06
-1.40098e-05
5.68491e-07
-5.24365e-07
-1.22266e-05
4.85873e-07
5.70037e-07
-1.03973e-05
3.80248e-07
1.53955e-06
-8.5785e-06
2.52949e-07
2.2997e-06
-6.83501e-06
1.13171e-07
2.80873e-06
-5.22999e-06
-2.05549e-08
3.08227e-06
-3.80326e-06
-1.31755e-07
3.16804e-06
-2.54847e-06
-2.10391e-07
3.13961e-06
-1.42755e-06
-2.70672e-07
3.06318e-06
-3.96228e-07
-3.16134e-07
3.01434e-06
5.56706e-07
-3.46096e-07
2.92728e-06
1.56507e-06
-3.61332e-07
2.79734e-06
2.73087e-06
-3.64812e-07
2.61198e-06
4.08715e-06
-3.59526e-07
2.35793e-06
5.71365e-06
-3.45368e-07
2.02748e-06
7.71516e-06
-3.20598e-07
1.62825e-06
1.01723e-05
-2.82808e-07
1.2092e-06
1.29583e-05
-2.27884e-07
8.52353e-07
1.53944e-05
-1.56757e-07
5.39428e-07
1.64563e-05
-8.06818e-08
2.16665e-07
1.58788e-05
-1.1327e-09
9.5471e-06
5.34315e-08
-4.18384e-07
-6.79664e-06
2.61251e-07
-1.01406e-06
-1.55434e-05
4.72932e-07
-1.56209e-06
-1.98428e-05
5.68403e-07
-2.05685e-06
-2.16351e-05
6.24692e-07
-2.48001e-06
-2.23643e-05
6.45822e-07
-2.82332e-06
-2.25954e-05
6.54591e-07
-3.06371e-06
-2.25048e-05
6.53936e-07
-3.17309e-06
-2.21398e-05
6.43806e-07
-3.13181e-06
-2.15243e-05
6.26347e-07
-2.9324e-06
-2.06734e-05
6.06774e-07
-2.57682e-06
-1.96052e-05
5.90763e-07
-2.06302e-06
-1.83499e-05
5.75991e-07
-1.41061e-06
-1.69177e-05
5.65759e-07
-6.30555e-07
-1.53494e-05
5.5955e-07
2.54989e-07
-1.36628e-05
5.50551e-07
1.21269e-06
-1.18809e-05
5.25904e-07
2.1945e-06
-1.00354e-05
4.75002e-07
3.1162e-06
-8.15044e-06
3.93682e-07
3.87717e-06
-6.27516e-06
2.84156e-07
4.39047e-06
-4.47383e-06
1.57235e-07
4.61885e-06
-2.80661e-06
2.97375e-08
4.58126e-06
-1.31205e-06
-7.79324e-08
4.36435e-06
-2.02624e-08
-1.59076e-07
4.14182e-06
9.89012e-07
-2.09784e-07
3.85061e-06
2.1032e-06
-2.46933e-07
3.53276e-06
3.31804e-06
-2.69326e-07
3.1904e-06
4.7085e-06
-2.78995e-07
2.81115e-06
6.37017e-06
-2.77281e-07
2.38364e-06
8.4069e-06
-2.64225e-07
1.91304e-06
1.08808e-05
-2.37817e-07
1.44169e-06
1.36242e-05
-1.945e-07
1.03641e-06
1.59345e-05
-1.34795e-07
6.64018e-07
1.68959e-05
-6.71544e-08
2.77756e-07
1.62559e-05
9.23531e-09
9.76092e-06
6.39414e-08
-1.33749e-07
-6.86466e-06
2.01921e-07
-2.04586e-07
-1.58153e-05
3.42807e-07
-1.40515e-07
-2.03171e-05
4.10249e-07
-5.41106e-08
-2.22056e-05
4.84189e-07
1.38167e-08
-2.29623e-05
5.30143e-07
7.41268e-08
-2.32009e-05
5.45214e-07
1.47107e-07
-2.31158e-05
5.38101e-07
2.4287e-07
-2.27551e-05
5.19553e-07
3.62218e-07
-2.21384e-05
4.94769e-07
5.01763e-07
-2.12777e-05
4.64776e-07
6.50727e-07
-2.0185e-05
4.30936e-07
7.89845e-07
-1.88849e-05
3.95954e-07
9.63845e-07
-1.74683e-05
3.76697e-07
1.23189e-06
-1.59963e-05
3.7881e-07
1.63947e-06
-1.44767e-05
4.06405e-07
2.18879e-06
-1.28741e-05
4.43894e-07
2.85737e-06
-1.11723e-05
4.68354e-07
3.60563e-06
-9.3721e-06
4.73445e-07
4.3669e-06
-7.48436e-06
4.47971e-07
5.04028e-06
-5.53311e-06
3.85946e-07
5.5032e-06
-3.55789e-06
2.88413e-07
5.65024e-06
-1.62526e-06