/*--------------------------------*- C++ -*----------------------------------*\
| =========                 |                                                 |
| \\      /  F ield         | OpenFOAM: The Open Source CFD Toolbox           |
|  \\    /   O peration     | Version:  2.0.x                                 |
|   \\  /    A nd           | Web:      www.OpenFOAM.org                      |
|    \\/     M anipulation  |                                                 |
\*---------------------------------------------------------------------------*/
FoamFile
{
    version     2.0;
    format      ascii;
    class       volScalarField;
    location    "700";
    object      T;
}
// * * * * * * * * * * * * * * * * * * * * * * * * * * * * * * * * * * * * * //

dimensions      [0 0 0 1 0 0 0];

internalField   nonuniform List<scalar> 
78750
(
288.931
289.837
290.124
290.175
290.184
290.216
290.263
290.329
290.403
290.472
290.537
290.596
290.649
290.699
290.746
290.791
290.834
290.876
290.915
290.953
290.989
291.023
291.055
291.084
291.111
291.135
291.157
291.175
291.185
291.194
291.202
291.21
291.346
292.753
300.246
288.691
289.332
289.554
289.572
289.595
289.748
289.953
290.127
290.269
290.392
290.504
290.611
290.716
290.816
290.911
291.002
291.086
291.165
291.239
291.307
291.369
291.426
291.48
291.529
291.572
291.609
291.637
291.658
291.668
291.664
291.636
291.639
291.85
293.881
300.866
288.351
288.684
288.907
289.122
289.382
289.676
289.939
290.165
290.354
290.515
290.66
290.79
290.907
291.013
291.107
291.192
291.27
291.341
291.407
291.468
291.525
291.578
291.626
291.67
291.711
291.747
291.777
291.801
291.816
291.827
291.852
292.036
293.03
295.661
301.739
288.376
288.8
289.205
289.604
289.952
290.202
290.398
290.561
290.701
290.824
290.929
291.022
291.106
291.184
291.258
291.328
291.397
291.463
291.527
291.588
291.645
291.699
291.749
291.794
291.836
291.872
291.903
291.93
291.955
291.994
292.107
292.565
294.121
297.022
302.491
288.408
288.902
289.343
289.714
290.008
290.242
290.433
290.594
290.733
290.858
290.972
291.078
291.178
291.275
291.367
291.454
291.535
291.611
291.681
291.744
291.802
291.855
291.903
291.946
291.984
292.018
292.048
292.079
292.118
292.194
292.396
293.074
294.972
297.948
303.009
288.454
289.033
289.537
289.946
290.25
290.476
290.654
290.804
290.935
291.054
291.164
291.267
291.361
291.449
291.532
291.609
291.681
291.747
291.809
291.867
291.92
291.969
292.015
292.056
292.094
292.13
292.166
292.208
292.27
292.391
292.695
293.575
295.682
298.694
303.486
288.481
289.103
289.623
290.022
290.313
290.531
290.707
290.857
290.99
291.112
291.224
291.33
291.43
291.525
291.613
291.694
291.77
291.84
291.906
291.967
292.022
292.072
292.118
292.161
292.199
292.237
292.275
292.323
292.403
292.567
292.961
294
296.245
299.249
303.819
288.523
289.221
289.79
290.205
290.49
290.7
290.871
291.019
291.154
291.28
291.398
291.507
291.607
291.698
291.782
291.86
291.932
291.999
292.059
292.115
292.165
292.21
292.252
292.291
292.328
292.365
292.408
292.469
292.568
292.76
293.219
294.375
296.683
299.675
304.099
288.559
289.315
289.908
290.319
290.598
290.805
290.975
291.125
291.262
291.39
291.508
291.617
291.719
291.812
291.898
291.977
292.048
292.114
292.173
292.226
292.274
292.318
292.36
292.4
292.44
292.483
292.535
292.611
292.736
292.974
293.519
294.783
297.1
300.058
304.366
288.604
289.436
290.071
290.49
290.763
290.964
291.133
291.287
291.43
291.561
291.681
291.79
291.89
291.981
292.062
292.135
292.201
292.261
292.316
292.365
292.409
292.451
292.49
292.529
292.57
292.617
292.677
292.766
292.912
293.189
293.807
295.152
297.453
300.376
304.597
288.651
289.558
290.229
290.652
290.926
291.132
291.309
291.47
291.617
291.748
291.864
291.965
292.053
292.131
292.2
292.263
292.321
292.375
292.426
292.473
292.518
292.561
292.603
292.647
292.695
292.752
292.827
292.934
293.104
293.431
294.133
295.545
297.799
300.667
304.803
288.702
289.693
290.408
290.841
291.118
291.334
291.527
291.703
291.857
291.985
292.087
292.168
292.235
292.293
292.347
292.398
292.447
292.494
292.54
292.586
292.63
292.674
292.719
292.768
292.822
292.889
292.977
293.1
293.297
293.671
294.44
295.906
298.112
300.915
304.969
288.753
289.822
290.572
291.021
291.317
291.558
291.775
291.968
292.124
292.237
292.313
292.366
292.408
292.446
292.484
292.523
292.563
292.604
292.647
292.691
292.737
292.784
292.834
292.89
292.954
293.032
293.133
293.275
293.507
293.937
294.769
296.276
298.418
301.139
305.11
288.794
289.919
290.689
291.145
291.46
291.73
291.978
292.192
292.348
292.444
292.5
292.535
292.561
292.585
292.612
292.641
292.674
292.711
292.75
292.793
292.84
292.89
292.945
293.007
293.078
293.166
293.28
293.443
293.708
294.186
295.075
296.612
298.688
301.323
305.218
288.812
289.943
290.704
291.157
291.48
291.764
292.03
292.267
292.457
292.581
292.644
292.677
292.698
292.716
292.736
292.76
292.788
292.82
292.857
292.9
292.947
292.999
293.058
293.126
293.206
293.303
293.431
293.618
293.922
294.45
295.394
296.954
298.954
301.491
305.313
288.814
289.943
290.701
291.152
291.476
291.764
292.03
292.267
292.461
292.608
292.713
292.773
292.803
292.825
292.845
292.867
292.893
292.924
292.961
293.003
293.051
293.106
293.169
293.242
293.328
293.435
293.577
293.787
294.123
294.695
295.683
297.255
299.179
301.62
305.381
288.794
289.886
290.629
291.084
291.416
291.708
291.978
292.223
292.432
292.6
292.726
292.819
292.887
292.925
292.95
292.974
292.999
293.029
293.065
293.107
293.156
293.214
293.281
293.36
293.453
293.57
293.729
293.963
294.333
294.949
295.979
297.555
299.397
301.734
305.439
288.745
289.753
290.459
290.911
291.245
291.539
291.813
292.07
292.305
292.51
292.679
292.81
292.907
292.98
293.034
293.069
293.097
293.128
293.164
293.207
293.258
293.318
293.388
293.472
293.572
293.7
293.875
294.133
294.534
295.189
296.256
297.828
299.589
301.827
305.482
288.711
289.655
290.306
290.73
291.048
291.329
291.595
291.851
292.095
292.324
292.53
292.71
292.858
292.973
293.061
293.13
293.184
293.226
293.264
293.308
293.359
293.42
293.493
293.581
293.688
293.826
294.016
294.295
294.725
295.415
296.51
298.071
299.755
301.902
305.515
288.693
289.6
290.214
290.603
290.89
291.142
291.381
291.614
291.843
292.069
292.287
292.495
292.687
292.857
293.002
293.118
293.209
293.284
293.348
293.403
293.458
293.521
293.597
293.688
293.8
293.948
294.153
294.451
294.905
295.622
296.735
298.276
299.889
301.958
305.537
288.674
289.55
290.147
290.52
290.783
291.004
291.208
291.403
291.597
291.793
291.996
292.201
292.403
292.602
292.794
292.972
293.127
293.258
293.365
293.454
293.536
293.613
293.695
293.792
293.911
294.068
294.288
294.605
295.084
295.828
296.955
298.468
300.015
302.013
305.556
288.656
289.514
290.117
290.502
290.766
290.978
291.166
291.34
291.502
291.654
291.8
291.949
292.112
292.288
292.481
292.684
292.883
293.074
293.251
293.406
293.539
293.655
293.763
293.873
294.003
294.172
294.405
294.742
295.245
296.015
297.155
298.638
300.127
302.064
305.571
288.647
289.505
290.115
290.502
290.766
290.979
291.167
291.34
291.503
291.654
291.796
291.928
292.052
292.171
292.288
292.422
292.589
292.783
292.991
293.2
293.403
293.592
293.76
293.908
294.064
294.252
294.5
294.854
295.381
296.176
297.328
298.785
300.229
302.116
305.587
288.646
289.51
290.139
290.542
290.815
291.033
291.226
291.404
291.57
291.723
291.861
291.984
292.092
292.19
292.288
292.389
292.497
292.616
292.764
292.95
293.17
293.409
293.646
293.861
294.065
294.29
294.564
294.937
295.483
296.298
297.461
298.896
300.307
302.161
305.602
288.664
289.575
290.251
290.684
290.975
291.21
291.421
291.617
291.799
291.962
292.096
292.197
292.272
292.331
292.387
292.449
292.524
292.617
292.728
292.862
293.027
293.242
293.495
293.755
294.018
294.289
294.601
295.002
295.57
296.402
297.569
298.982
300.367
302.202
305.622
288.692
289.651
290.361
290.822
291.145
291.411
291.654
291.882
292.092
292.273
292.409
292.493
292.545
292.573
292.591
292.613
292.648
292.701
292.777
292.88
293.017
293.193
293.412
293.668
293.954
294.272
294.626
295.06
295.653
296.502
297.671
299.061
300.422
302.242
305.646
288.7
289.661
290.366
290.827
291.157
291.434
291.69
291.932
292.157
292.362
292.538
292.676
292.753
292.786
292.8
292.809
292.824
292.853
292.901
292.975
293.079
293.222
293.411
293.647
293.928
294.257
294.646
295.121
295.748
296.619
297.789
299.149
300.484
302.291
305.674
288.703
289.66
290.364
290.827
291.155
291.434
291.69
291.933
292.159
292.362
292.539
292.686
292.803
292.891
292.941
292.966
292.988
293.015
293.054
293.112
293.196
293.312
293.472
293.68
293.943
294.272
294.678
295.183
295.844
296.74
297.913
299.241
300.552
302.349
305.703
288.694
289.626
290.309
290.767
291.101
291.383
291.643
291.886
292.112
292.32
292.505
292.665
292.797
292.904
292.991
293.063
293.114
293.153
293.197
293.253
293.327
293.427
293.565
293.748
293.99
294.31
294.724
295.252
295.944
296.866
298.041
299.337
300.625
302.414
305.733
288.656
289.518
290.155
290.596
290.926
291.207
291.465
291.706
291.934
292.149
292.351
292.538
292.706
292.852
292.973
293.073
293.16
293.239
293.305
293.37
293.441
293.533
293.655
293.822
294.05
294.359
294.775
295.322
296.04
296.985
298.163
299.428
300.695
302.477
305.758
288.611
289.398
289.984
290.395
290.703
290.966
291.209
291.439
291.66
291.875
292.084
292.289
292.487
292.674
292.847
293
293.13
293.238
293.335
293.426
293.516
293.612
293.727
293.883
294.099
294.398
294.813
295.375
296.118
297.087
298.27
299.512
300.762
302.538
305.779
288.579
289.318
289.872
290.259
290.543
290.78
290.999
291.207
291.41
291.609
291.806
292.003
292.202
292.404
292.607
292.803
292.987
293.151
293.293
293.414
293.524
293.634
293.758
293.913
294.123
294.412
294.823
295.398
296.165
297.152
298.341
299.568
300.808
302.58
305.791
288.554
289.265
289.817
290.207
290.487
290.714
290.92
291.115
291.305
291.491
291.675
291.858
292.039
292.218
292.398
292.586
292.781
292.976
293.163
293.332
293.48
293.614
293.75
293.91
294.116
294.4
294.812
295.395
296.184
297.2
298.399
299.616
300.847
302.616
305.8
288.543
289.251
289.81
290.206
290.487
290.714
290.92
291.115
291.306
291.493
291.679
291.863
292.045
292.222
292.394
292.562
292.73
292.902
293.078
293.252
293.419
293.575
293.731
293.899
294.1
294.378
294.791
295.385
296.189
297.229
298.444
299.658
300.886
302.653
305.814
288.547
289.276
289.858
290.264
290.549
290.78
290.991
291.195
291.398
291.602
291.811
292.02
292.219
292.401
292.561
292.704
292.84
292.977
293.123
293.276
293.432
293.588
293.748
293.915
294.109
294.378
294.783
295.38
296.201
297.258
298.482
299.692
300.922
302.7
305.843
288.586
289.394
290.025
290.446
290.738
290.978
291.205
291.432
291.668
291.915
292.173
292.426
292.652
292.831
292.964
293.064
293.151
293.239
293.338
293.452
293.577
293.71
293.848
293.997
294.179
294.437
294.83
295.424
296.263
297.336
298.56
299.757
300.982
302.762
305.883
288.66
289.581
290.262
290.698
291.005
291.268
291.527
291.796
292.082
292.397
292.731
293.04
293.275
293.408
293.477
293.517
293.549
293.589
293.645
293.716
293.805
293.906
294.02
294.155
294.331
294.581
294.96
295.538
296.366
297.438
298.655
299.826
301.049
302.863
305.946
288.745
289.755
290.452
290.891
291.214
291.505
291.799
292.11
292.443
292.784
293.104
293.389
293.612
293.768
293.838
293.86
293.868
293.889
293.924
293.976
294.046
294.132
294.236
294.37
294.551
294.806
295.184
295.751
296.568
297.626
298.808
299.941
301.156
302.986
306.019
288.769
289.792
290.483
290.917
291.242
291.54
291.84
292.151
292.469
292.786
293.091
293.368
293.599
293.779
293.912
294.009
294.082
294.127
294.165
294.21
294.273
294.354
294.459
294.6
294.795
295.068
295.458
296.027
296.827
297.854
298.995
300.075
301.271
303.116
306.072
288.768
289.772
290.438
290.86
291.175
291.458
291.728
291.991
292.249
292.511
292.783
293.06
293.331
293.582
293.799
293.977
294.115
294.227
294.319
294.4
294.474
294.558
294.663
294.807
295.01
295.299
295.707
296.287
297.083
298.085
299.179
300.207
301.369
303.197
306.091
288.706
289.615
290.238
290.644
290.936
291.179
291.397
291.603
291.808
292.019
292.243
292.484
292.749
293.037
293.32
293.6
293.863
294.094
294.286
294.444
294.577
294.699
294.826
294.978
295.183
295.471
295.879
296.457
297.244
298.223
299.277
300.268
301.409
303.225
306.086
288.635
289.465
290.083
290.498
290.794
291.036
291.254
291.458
291.651
291.834
292.007
292.173
292.337
292.51
292.726
292.978
293.268
293.581
293.89
294.183
294.445
294.672
294.873
295.073
295.304
295.601
296.006
296.57
297.338
298.298
299.333
300.304
301.421
303.214
306.065
288.63
289.457
290.074
290.491
290.787
291.029
291.247
291.451
291.643
291.826
291.999
292.164
292.322
292.475
292.623
292.771
292.928
293.123
293.383
293.695
294.031
294.374
294.703
295.009
295.303
295.648
296.087
296.669
297.436
298.378
299.387
300.34
301.43
303.188
306.041
288.614
289.429
290.053
290.481
290.782
291.025
291.243
291.446
291.639
291.822
291.997
292.164
292.322
292.474
292.621
292.766
292.912
293.064
293.227
293.422
293.685
294.019
294.403
294.809
295.209
295.615
296.08
296.669
297.439
298.379
299.387
300.343
301.429
303.154
306.019
288.607
289.42
290.049
290.483
290.789
291.035
291.254
291.46
291.657
291.846
292.027
292.198
292.359
292.51
292.652
292.79
292.928
293.07
293.222
293.393
293.592
293.838
294.169
294.573
295.015
295.49
296.014
296.636
297.412
298.353
299.367
300.334
301.412
303.115
305.999
288.609
289.433
290.081
290.53
290.846
291.099
291.327
291.542
291.75
291.952
292.144
292.324
292.489
292.639
292.775
292.9
293.021
293.143
293.273
293.42
293.595
293.815
294.096
294.456
294.887
295.387
295.949
296.598
297.394
298.346
299.365
300.336
301.415
303.111
306
288.624
289.478
290.145
290.602
290.923
291.185
291.422
291.647
291.865
292.076
292.28
292.472
292.648
292.806
292.945
293.066
293.176
293.281
293.39
293.511
293.655
293.838
294.083
294.403
294.811
295.319
295.912
296.592
297.4
298.352
299.373
300.351
301.431
303.118
306.006
288.639
289.519
290.199
290.66
290.984
291.249
291.491
291.723
291.949
292.17
292.386
292.594
292.787
292.961
293.113
293.241
293.352
293.451
293.547
293.65
293.77
293.92
294.125
294.405
294.783
295.283
295.895
296.61
297.442
298.403
299.422
300.392
301.466
303.149
306.021
288.662
289.578
290.272
290.733
291.058
291.327
291.575
291.813
292.048
292.281
292.512
292.736
292.946
293.135
293.299
293.436
293.551
293.65
293.742
293.838
293.945
294.074
294.244
294.481
294.82
295.295
295.907
296.636
297.491
298.466
299.486
300.449
301.52
303.203
306.048
288.686
289.631
290.33
290.789
291.115
291.388
291.642
291.888
292.133
292.378
292.622
292.863
293.092
293.301
293.48
293.631
293.756
293.862
293.957
294.05
294.153
294.275
294.43
294.644
294.949
295.384
295.986
296.739
297.615
298.592
299.593
300.534
301.6
303.288
306.094
288.7
289.659
290.358
290.811
291.132
291.404
291.659
291.906
292.15
292.391
292.633
292.876
293.117
293.351
293.572
293.759
293.908
294.032
294.139
294.238
294.34
294.456
294.603
294.801
295.086
295.498
296.08
296.822
297.697
298.675
299.666
300.594
301.655
303.345
306.119
288.711
289.684
290.384
290.833
291.15
291.418
291.668
291.911
292.151
292.391
292.632
292.873
293.114
293.351
293.577
293.787
293.979
294.136
294.269
294.386
294.496
294.613
294.754
294.939
295.203
295.588
296.142
296.877
297.764
298.732
299.711
300.627
301.683
303.377
306.134
288.712
289.685
290.386
290.835
291.152
291.419
291.666
291.903
292.134
292.364
292.596
292.831
293.07
293.312
293.551
293.778
293.986
294.174
294.337
294.479
294.607
294.733
294.874
295.053
295.304
295.674
296.214
296.929
297.799
298.775
299.754
300.662
301.714
303.406
306.134
288.711
289.685
290.389
290.84
291.157
291.423
291.668
291.904
292.136
292.363
292.589
292.816
293.045
293.279
293.516
293.75
293.973
294.178
294.362
294.524
294.668
294.804
294.947
295.119
295.35
295.685
296.184
296.878
297.746
298.735
299.728
300.643
301.695
303.388
306.124
288.72
289.71
290.428
290.884
291.201
291.466
291.71
291.944
292.172
292.394
292.614
292.834
293.058
293.287
293.52
293.754
293.981
294.194
294.388
294.563
294.72
294.866
295.016
295.188
295.403
295.709
296.179
296.853
297.723
298.723
299.725
300.642
301.694
303.388
306.122
288.734
289.752
290.487
290.953
291.277
291.548
291.796
292.031
292.254
292.468
292.676
292.884
293.096
293.315
293.541
293.772
294.004
294.228
294.432
294.617
294.782
294.936
295.093
295.272
295.496
295.8
296.228
296.859
297.724
298.725
299.727
300.643
301.695
303.39
306.127
288.734
289.755
290.503
290.982
291.318
291.601
291.861
292.104
292.329
292.537
292.733
292.925
293.12
293.326
293.543
293.772
294.005
294.235
294.455
294.655
294.834
294.999
295.163
295.35
295.589
295.922
296.386
297.018
297.839
298.823
299.818
300.721
301.765
303.461
306.159
288.738
289.772
290.533
291.024
291.372
291.67
291.947
292.207
292.441
292.648
292.833
293.007
293.181
293.365
293.563
293.777
294.003
294.233
294.459
294.67
294.864
295.04
295.21
295.395
295.629
295.965
296.452
297.115
297.954
298.923
299.894
300.781
301.811
303.486
306.163
288.75
289.808
290.587
291.088
291.449
291.767
292.069
292.353
292.607
292.822
293.003
293.164
293.318
293.478
293.651
293.84
294.046
294.263
294.482
294.695
294.894
295.074
295.243
295.418
295.631
295.926
296.378
297.046
297.914
298.894
299.855
300.727
301.745
303.417
306.128
288.759
289.832
290.613
291.114
291.483
291.814
292.138
292.449
292.728
292.961
293.152
293.317
293.47
293.624
293.789
293.967
294.16
294.363
294.57
294.773
294.967
295.145
295.31
295.475
295.659
295.899
296.243
296.773
297.553
298.533
299.57
300.531
301.582
303.238
306.041
288.767
289.852
290.631
291.127
291.495
291.832
292.168
292.497
292.793
293.043
293.246
293.417
293.575
293.731
293.897
294.076
294.271
294.477
294.687
294.896
295.093
295.274
295.445
295.611
295.78
295.972
296.248
296.708
297.417
298.395
299.499
300.509
301.576
303.23
306.041
288.779
289.876
290.647
291.137
291.505
291.847
292.192
292.538
292.863
293.134
293.348
293.525
293.682
293.836
293.998
294.175
294.371
294.581
294.8
295.02
295.234
295.439
295.639
295.835
296.029
296.231
296.473
296.838
297.479
298.451
299.561
300.551
301.617
303.305
306.09
288.785
289.878
290.648
291.137
291.504
291.847
292.192
292.539
292.872
293.172
293.424
293.623
293.791
293.948
294.108
294.282
294.474
294.684
294.908
295.14
295.375
295.616
295.866
296.124
296.39
296.674
297.005
297.454
298.122
299.031
300.009
300.904
301.939
303.617
306.237
288.786
289.877
290.633
291.113
291.478
291.819
292.163
292.514
292.858
293.173
293.446
293.669
293.854
294.02
294.182
294.354
294.541
294.747
294.972
295.212
295.467
295.744
296.049
296.383
296.745
297.141
297.594
298.146
298.846
299.676
300.512
301.309
302.299
303.929
306.362
288.784
289.871
290.619
291.089
291.442
291.771
292.108
292.458
292.81
293.147
293.447
293.699
293.903
294.077
294.241
294.409
294.589
294.786
295.001
295.236
295.499
295.797
296.135
296.518
296.955
297.441
297.987
298.61
299.318
300.076
300.812
301.546
302.502
304.086
306.415
288.786
289.871
290.618
291.087
291.44
291.764
292.09
292.424
292.766
293.108
293.428
293.707
293.942
294.137
294.306
294.471
294.643
294.828
295.03
295.252
295.505
295.798
296.137
296.539
297.011
297.551
298.148
298.798
299.495
300.202
300.885
301.591
302.532
304.098
306.414
288.782
289.858
290.599
291.066
291.414
291.73
292.041
292.359
292.689
293.027
293.363
293.674
293.943
294.168
294.361
294.533
294.703
294.88
295.068
295.273
295.508
295.781
296.106
296.501
296.98
297.541
298.159
298.824
299.514
300.198
300.871
301.572
302.505
304.064
306.393
288.773
289.832
290.561
291.02
291.361
291.666
291.963
292.263
292.573
292.899
293.238
293.577
293.891
294.159
294.383
294.577
294.753
294.926
295.105
295.298
295.513
295.757
296.043
296.399
296.852
297.416
298.073
298.779
299.497
300.193
300.867
301.567
302.494
304.036
306.374
288.765
289.81
290.529
290.979
291.308
291.598
291.877
292.156
292.445
292.748
293.073
293.416
293.763
294.087
294.364
294.595
294.797
294.98
295.159
295.344
295.54
295.756
296.004
296.3
296.677
297.17
297.787
298.498
299.255
300.006
300.717
301.437
302.367
303.922
306.327
288.758
289.795
290.511
290.959
291.279
291.556
291.816
292.073
292.335
292.608
292.9
293.22
293.565
293.922
294.262
294.559
294.807
295.023
295.222
295.416
295.61
295.81
296.026
296.281
296.593
296.991
297.515
298.164
298.905
299.676
300.428
301.182
302.134
303.718
306.243
288.752
289.784
290.503
290.955
291.275
291.542
291.787
292.023
292.257
292.5
292.755
293.035
293.346
293.691
294.057
294.416
294.74
295.019
295.262
295.486
295.703
295.915
296.126
296.347
296.609
296.957
297.411
297.992
298.698
299.474
300.258
301.035
301.99
303.577
306.181
288.744
289.768
290.494
290.953
291.274
291.541
291.781
292.006
292.222
292.435
292.655
292.894
293.164
293.467
293.811
294.185
294.564
294.921
295.237
295.516
295.779
296.03
296.269
296.503
296.744
297.026
297.415
297.969
298.657
299.438
300.231
301.009
301.96
303.547
306.167
288.74
289.765
290.493
290.953
291.276
291.542
291.782
292.006
292.22
292.429
292.635
292.84
293.056
293.306
293.602
293.945
294.328
294.73
295.118
295.471
295.789
296.095
296.39
296.672
296.947
297.234
297.577
298.031
298.664
299.437
300.23
301.009
301.961
303.547
306.168
288.739
289.766
290.505
290.976
291.302
291.567
291.802
292.021
292.23
292.433
292.635
292.838
293.044
293.258
293.491
293.771
294.112
294.504
294.921
295.332
295.727
296.091
296.437
296.784
297.131
297.484
297.866
298.321
298.888
299.566
300.298
301.044
301.978
303.555
306.169
288.742
289.784
290.545
291.031
291.366
291.636
291.872
292.088
292.291
292.484
292.672
292.861
293.055
293.259
293.476
293.714
293.984
294.317
294.706
295.126
295.554
295.983
296.4
296.792
297.193
297.615
298.072
298.58
299.166
299.822
300.511
301.219
302.112
303.635
306.194
288.747
289.804
290.583
291.083
291.43
291.711
291.958
292.183
292.391
292.585
292.77
292.948
293.125
293.308
293.502
293.715
293.953
294.225
294.547
294.922
295.329
295.763
296.216
296.687
297.157
297.618
298.106
298.648
299.256
299.915
300.59
301.285
302.165
303.662
306.197
288.752
289.823
290.616
291.127
291.483
291.773
292.031
292.267
292.486
292.691
292.884
293.067
293.243
293.416
293.595
293.783
293.988
294.219
294.487
294.795
295.146
295.539
295.971
296.436
296.939
297.486
298.053
298.642
299.257
299.916
300.591
301.286
302.166
303.659
306.188
288.764
289.864
290.674
291.192
291.554
291.851
292.116
292.361
292.589
292.803
293.005
293.196
293.377
293.553
293.726
293.903
294.091
294.297
294.53
294.791
295.084
295.419
295.805
296.237
296.719
297.258
297.848
298.485
299.167
299.864
300.559
301.265
302.148
303.642
306.181
288.782
289.912
290.735
291.26
291.629
291.936
292.211
292.466
292.706
292.931
293.143
293.344
293.534
293.714
293.887
294.059
294.236
294.426
294.636
294.868
295.127
295.429
295.78
296.176
296.627
297.142
297.729
298.386
299.097
299.828
300.545
301.261
302.149
303.645
306.184
288.797
289.951
290.78
291.305
291.677
291.99
292.275
292.541
292.793
293.033
293.262
293.481
293.687
293.88
294.062
294.236
294.408
294.587
294.782
294.997
295.238
295.517
295.838
296.206
296.634
297.14
297.727
298.391
299.116
299.86
300.584
301.303
302.199
303.705
306.216
288.817
289.998
290.832
291.353
291.723
292.038
292.326
292.596
292.853
293.101
293.344
293.582
293.811
294.026
294.225
294.409
294.583
294.757
294.941
295.145
295.381
295.656
295.973
296.337
296.764
297.265
297.857
298.533
299.256
299.985
300.69
301.397
302.294
303.803
306.263
288.831
290.029
290.865
291.386
291.76
292.078
292.368
292.639
292.897
293.149
293.4
293.654
293.904
294.144
294.363
294.561
294.74
294.909
295.082
295.271
295.49
295.749
296.055
296.418
296.852
297.367
297.97
298.648
299.364
300.08
300.771
301.47
302.365
303.868
306.291
288.842
290.056
290.894
291.413
291.788
292.11
292.404
292.677
292.938
293.192
293.45
293.716
293.988
294.256
294.505
294.727
294.922
295.099
295.268
295.445
295.642
295.874
296.153
296.494
296.915
297.428
298.03
298.706
299.425
300.129
300.808
301.504
302.41
303.925
306.319
288.855
290.085
290.924
291.442
291.819
292.143
292.439
292.713
292.972
293.225
293.483
293.755
294.043
294.335
294.616
294.869
295.091
295.288
295.469
295.646
295.832
296.042
296.292
296.601
296.993
297.482
298.071
298.74
299.426
300.12
300.794
301.492
302.404
303.933
306.323
288.862
290.102
290.942
291.462
291.842
292.171
292.468
292.742
292.999
293.249
293.505
293.776
294.07
294.38
294.683
294.963
295.212
295.435
295.637
295.826
296.012
296.211
296.439
296.717
297.073
297.529
298.091
298.74
299.418
300.098
300.762
301.457
302.375
303.914
306.318
288.868
290.115
290.954
291.473
291.855
292.186
292.486
292.76
293.016
293.263
293.514
293.783
294.079
294.4
294.732
295.043
295.322
295.571
295.793
295.994
296.186
296.38
296.593
296.846
297.168
297.587
298.117
298.742
299.413
300.083
300.739
301.427
302.341
303.887
306.307
288.873
290.127
290.968
291.488
291.871
292.205
292.505
292.778
293.031
293.272
293.514
293.772
294.063
294.391
294.742
295.086
295.399
295.678
295.925
296.143
296.342
296.536
296.739
296.971
297.261
297.644
298.14
298.745
299.413
300.082
300.735
301.42
302.33
303.876
306.297
288.88
290.144
290.986
291.507
291.895
292.232
292.535
292.808
293.057
293.292
293.525
293.772
294.051
294.375
294.736
295.106
295.456
295.772
296.048
296.29
296.505
296.705
296.903
297.118
297.377
297.716
298.169
298.75
299.409
300.079
300.734
301.419
302.33
303.873
306.296
288.884
290.152
290.992
291.513
291.904
292.245
292.551
292.825
293.074
293.305
293.531
293.768
294.035
294.349
294.715
295.106
295.488
295.842
296.157
296.432
296.674
296.893
297.101
297.314
297.557
297.864
298.271
298.795
299.42
300.083
300.734
301.419
302.331
303.878
306.299
288.887
290.159
290.998
291.52
291.912
292.255
292.562
292.837
293.084
293.312
293.531
293.753
294.002
294.299
294.656
295.06
295.473
295.867
296.228
296.546
296.829
297.084
297.323
297.561
297.819
298.128
298.52
299.011
299.582
300.185
300.803
301.467
302.37
303.912
306.319
288.891
290.167
291.005
291.53
291.928
292.275
292.586
292.861
293.106
293.328
293.539
293.75
293.979
294.249
294.58
294.973
295.403
295.834
296.234
296.593
296.92
297.221
297.506
297.786
298.081
298.414
298.812
299.286
299.821
300.384
300.963
301.597
302.471
303.979
306.342
288.892
290.168
291.006
291.532
291.932
292.285
292.599
292.877
293.122
293.343
293.548
293.75
293.962
294.206
294.503
294.865
295.285
295.735
296.176
296.576
296.937
297.278
297.609
297.937
298.275
298.642
299.055
299.523
300.036
300.57
301.122
301.734
302.585
304.056
306.367
288.893
290.169
291.006
291.532
291.936
292.292
292.61
292.89
293.136
293.355
293.556
293.749
293.948
294.169
294.431
294.753
295.142
295.586
296.045
296.485
296.898
297.277
297.638
298.004
298.383
298.785
299.22
299.692
300.194
300.715
301.255
301.856
302.691
304.131
306.394
288.891
290.166
291.004
291.532
291.939
292.3
292.623
292.906
293.153
293.37
293.568
293.755
293.944
294.143
294.373
294.65
294.991
295.402
295.855
296.317
296.768
297.202
297.616
298.008
298.411
298.837
299.291
299.773
300.275
300.792
301.33
301.928
302.754
304.17
306.404
288.889
290.16
290.999
291.529
291.939
292.306
292.635
292.922
293.171
293.387
293.582
293.764
293.943
294.129
294.331
294.566
294.849
295.201
295.614
296.065
296.533
297.003
297.468
297.931
298.386
298.835
299.296
299.781
300.286
300.804
301.344
301.943
302.765
304.172
306.401
288.885
290.153
290.994
291.526
291.939
292.311
292.646
292.938
293.188
293.405
293.597
293.776
293.95
294.127
294.314
294.516
294.75
295.033
295.378
295.779
296.224
296.696
297.183
297.681
298.185
298.698
299.214
299.732
300.254
300.784
301.332
301.938
302.76
304.161
306.391
288.881
290.148
290.991
291.527
291.945
292.324
292.665
292.961
293.214
293.43
293.62
293.796
293.965
294.135
294.312
294.499
294.703
294.935
295.209
295.538
295.926
296.363
296.838
297.341
297.864
298.403
298.953
299.509
300.07
300.634
301.209
301.834
302.668
304.079
306.355
288.879
290.146
290.992
291.53
291.952
292.338
292.686
292.988
293.243
293.46
293.649
293.822
293.988
294.154
294.326
294.506
294.696
294.902
295.133
295.401
295.721
296.099
296.533
297.014
297.533
298.085
298.663
299.26
299.862
300.466
301.075
301.724
302.572
303.997
306.32
288.88
290.153
291.001
291.542
291.969
292.362
292.718
293.024
293.281
293.497
293.685
293.855
294.019
294.183
294.354
294.533
294.72
294.917
295.131
295.37
295.643
295.964
296.344
296.786
297.286
297.838
298.433
299.058
299.695
300.331
300.968
301.638
302.506
303.956
306.306
288.883
290.163
291.014
291.557
291.991
292.392
292.755
293.066
293.325
293.54
293.726
293.894
294.055
294.217
294.387
294.567
294.756
294.954
295.163
295.389
295.641
295.93
296.267
296.667
297.135
297.672
298.265
298.897
299.547
300.2
300.851
301.535
302.42
303.897
306.287
288.888
290.177
291.03
291.577
292.017
292.427
292.797
293.113
293.373
293.587
293.77
293.936
294.094
294.255
294.425
294.608
294.802
295.005
295.219
295.442
295.68
295.945
296.259
296.632
297.072
297.586
298.167
298.797
299.455
300.116
300.773
301.462
302.354
303.85
306.271
288.894
290.196
291.052
291.602
292.05
292.468
292.846
293.166
293.427
293.639
293.819
293.981
294.136
294.295
294.465
294.652
294.854
295.068
295.292
295.522
295.758
296.009
296.293
296.638
297.066
297.57
298.146
298.778
299.44
300.104
300.762
301.447
302.342
303.847
306.271
288.902
290.218
291.076
291.63
292.085
292.512
292.897
293.222
293.484
293.695
293.872
294.029
294.18
294.336
294.505
294.695
294.907
295.137
295.379
295.624
295.868
296.117
296.387
296.7
297.086
297.572
298.146
298.779
299.441
300.105
300.762
301.448
302.342
303.852
306.276
288.913
290.243
291.103
291.662
292.124
292.56
292.952
293.281
293.543
293.753
293.926
294.079
294.225
294.377
294.543
294.735
294.958
295.208
295.476
295.745
296.009
296.269
296.536
296.832
297.188
297.629
298.17
298.795
299.458
300.115
300.765
301.45
302.35
303.87
306.288
288.924
290.271
291.135
291.698
292.168
292.613
293.011
293.342
293.605
293.812
293.982
294.13
294.27
294.415
294.576
294.766
294.995
295.267
295.565
295.87
296.166
296.453
296.739
297.043
297.394
297.822
298.344
298.946
299.579
300.209
300.833
301.504
302.405
303.921
306.311
288.937
290.303
291.174
291.744
292.222
292.675
293.078
293.41
293.671
293.874
294.038
294.179
294.311
294.446
294.597
294.777
295.002
295.286