/*--------------------------------*- C++ -*----------------------------------*\
| =========                 |                                                 |
| \\      /  F ield         | OpenFOAM: The Open Source CFD Toolbox           |
|  \\    /   O peration     | Version:  2.0.x                                 |
|   \\  /    A nd           | Web:      www.OpenFOAM.org                      |
|    \\/     M anipulation  |                                                 |
\*---------------------------------------------------------------------------*/
FoamFile
{
    version     2.0;
    format      ascii;
    class       volVectorField;
    location    "700";
    object      U;
}
// * * * * * * * * * * * * * * * * * * * * * * * * * * * * * * * * * * * * * //

dimensions      [0 1 -1 0 0 0 0];

internalField   nonuniform List<vector> 
78750
(
(-0.00462484 0.0259596 0.0404332)
(-0.0147121 0.0208605 0.0583858)
(-0.0267205 0.00373854 0.05795)
(-0.0355845 -0.0129112 0.0553799)
(-0.039138 -0.0244543 0.053519)
(-0.0388538 -0.0341416 0.0528068)
(-0.0363491 -0.0398257 0.0531306)
(-0.0312088 -0.0453842 0.0520569)
(-0.0247591 -0.0503565 0.0508817)
(-0.0160622 -0.0544299 0.0498456)
(-0.00891154 -0.0561684 0.0492914)
(0.000379047 -0.0576821 0.0485313)
(0.00883834 -0.0586208 0.0478022)
(0.0172883 -0.0590636 0.0471012)
(0.0255706 -0.0586648 0.0465579)
(0.0334273 -0.0577594 0.0461883)
(0.0409224 -0.0564182 0.0459862)
(0.047926 -0.0546741 0.0459011)
(0.0543864 -0.052503 0.0459352)
(0.0601893 -0.0501534 0.0459694)
(0.065238 -0.0470779 0.0462103)
(0.0697535 -0.0436057 0.0467009)
(0.0727447 -0.0419908 0.045772)
(0.0755881 -0.0368275 0.0456516)
(0.0767079 -0.0337587 0.0460741)
(0.077081 -0.0295054 0.0466391)
(0.0761576 -0.0245305 0.047285)
(0.074077 -0.0191364 0.0479834)
(0.0703251 -0.0131194 0.0488585)
(0.0647118 -0.00638007 0.0498414)
(0.0573478 0.00183836 0.0507814)
(0.0484366 0.00970556 0.0523455)
(0.0365875 0.0173734 0.0550661)
(0.0220796 0.0274444 0.057402)
(0.00741451 0.0331619 0.0404408)
(0.000286392 0.0396433 0.0274305)
(-0.000282944 0.0571376 0.0428925)
(-0.00414814 0.044778 0.0454367)
(-0.00635256 0.0181162 0.0419578)
(-0.00705046 -0.0270781 0.0367472)
(-0.0062952 -0.0606498 0.0329984)
(-0.0019649 -0.0851799 0.029452)
(0.00155443 -0.101777 0.0265216)
(0.00642671 -0.11257 0.024364)
(0.0113655 -0.119048 0.0228248)
(0.0164668 -0.122491 0.0217732)
(0.0211267 -0.123639 0.0211867)
(0.0264011 -0.122728 0.0210072)
(0.0301147 -0.121277 0.0209808)
(0.0346923 -0.118093 0.0209724)
(0.0384585 -0.114042 0.0211076)
(0.0419548 -0.109284 0.0213636)
(0.0450911 -0.103891 0.0217503)
(0.0478233 -0.0979128 0.022278)
(0.050131 -0.0914083 0.0229319)
(0.0520079 -0.0844186 0.0236922)
(0.0534388 -0.0764909 0.0248245)
(0.0542951 -0.0666891 0.0271889)
(0.054764 -0.0563175 0.0297474)
(0.0541504 -0.0462234 0.0316691)
(0.0533256 -0.0362662 0.0326758)
(0.0516236 -0.025887 0.033533)
(0.0498192 -0.0144846 0.0345195)
(0.0457889 0.00524326 0.0368172)
(0.0420836 0.0168745 0.0381491)
(0.0371645 0.0312686 0.0398312)
(0.0302919 0.0523598 0.0413335)
(0.0221387 0.077857 0.0439302)
(0.0114662 0.0991019 0.0442045)
(0.00316316 0.0917279 0.032187)
(0.000416764 0.0091504 0.0190468)
(0.0036188 0.015972 0.0358035)
(0.00876533 -0.00528544 0.03883)
(0.0145966 -0.0340777 0.036197)
(0.020913 -0.0700939 0.0316318)
(0.0253071 -0.1018 0.0261987)
(0.0284985 -0.124282 0.0219807)
(0.0309444 -0.138401 0.0190228)
(0.0326311 -0.146185 0.0171769)
(0.0338305 -0.149796 0.0160044)
(0.0348018 -0.150629 0.0152441)
(0.0353963 -0.14986 0.0148732)
(0.0360056 -0.147248 0.0144016)
(0.0365708 -0.143615 0.0139927)
(0.0370385 -0.139327 0.0136715)
(0.0374771 -0.134394 0.0134467)
(0.0378243 -0.128827 0.0133725)
(0.0380346 -0.122654 0.0134868)
(0.0380848 -0.115895 0.0138145)
(0.0379531 -0.108573 0.0143697)
(0.037641 -0.100748 0.0151244)
(0.036963 -0.0923582 0.0160801)
(0.0365875 -0.0828017 0.0174443)
(0.0354232 -0.0734274 0.0180809)
(0.0345661 -0.0627791 0.0196302)
(0.0332859 -0.0512509 0.0218444)
(0.0317991 -0.0400672 0.0236106)
(0.0299045 -0.0266429 0.0258189)
(0.0272877 -0.00643482 0.0294698)
(0.0250513 0.00744967 0.0317189)
(0.0217916 0.0252343 0.0340751)
(0.0181557 0.0544036 0.0370875)
(0.0120721 0.0902977 0.0398086)
(0.00594037 0.113207 0.0381354)
(0.00167589 0.0995971 0.0267882)
(-0.000441518 -0.00867513 0.0135586)
(0.00141239 -0.0374935 0.0217806)
(0.00534625 -0.074067 0.0190108)
(0.0102972 -0.109499 0.0133158)
(0.0149681 -0.134985 0.00851098)
(0.0186299 -0.149032 0.00585372)
(0.0212542 -0.156109 0.00440063)
(0.0232319 -0.159019 0.00382103)
(0.0249867 -0.159946 0.00365751)
(0.0264278 -0.159715 0.00359205)
(0.0278157 -0.158722 0.00343342)
(0.0291814 -0.156753 0.00314996)
(0.0303631 -0.154221 0.00284562)
(0.0313511 -0.151406 0.00243154)
(0.0321553 -0.147709 0.00201117)
(0.0326747 -0.143147 0.00158171)
(0.0330134 -0.137413 0.00147415)
(0.0331154 -0.130722 0.00167144)
(0.0330207 -0.123238 0.00211792)
(0.0327444 -0.115065 0.00279284)
(0.0322798 -0.106256 0.00370214)
(0.0316532 -0.0968497 0.00487173)
(0.0307708 -0.0867624 0.0064484)
(0.0298946 -0.0756511 0.00910122)
(0.0286515 -0.0639558 0.0118066)
(0.0272148 -0.0516864 0.0144653)
(0.0255513 -0.0393963 0.0165588)
(0.0237433 -0.024814 0.0191118)
(0.0213299 -0.00549607 0.0226852)
(0.0192603 0.00827447 0.0250426)
(0.0163117 0.0288228 0.0280994)
(0.0134146 0.0610348 0.0321715)
(0.00842893 0.103183 0.0347732)
(0.00373476 0.124069 0.0324374)
(0.000875157 0.10363 0.0211617)
(6.34487e-05 -0.0127624 0.0072797)
(0.00236771 -0.0525011 0.00904052)
(0.00604938 -0.0909626 0.00668111)
(0.00986178 -0.119881 0.00469847)
(0.01303 -0.139735 0.00359893)
(0.0156483 -0.152825 0.00297913)
(0.0179661 -0.161545 0.00254885)
(0.0201094 -0.167486 0.00204757)
(0.02205 -0.171271 0.00141619)
(0.0237972 -0.173046 0.000718384)
(0.025454 -0.173099 4.88555e-05)
(0.0266819 -0.171859 -0.000451473)
(0.027906 -0.168547 -0.00103812)
(0.0288386 -0.163209 -0.00133439)
(0.0294388 -0.156771 -0.00169846)
(0.0297842 -0.149464 -0.00184386)
(0.0300561 -0.141787 -0.00127035)
(0.0299654 -0.133827 -0.000622627)
(0.0297134 -0.125534 5.625e-05)
(0.0293065 -0.116867 0.000808933)
(0.0287282 -0.107779 0.00169173)
(0.0279851 -0.0982309 0.00275007)
(0.0270809 -0.0881702 0.00403015)
(0.0260272 -0.0774843 0.00559028)
(0.0248058 -0.0662077 0.00732743)
(0.0234618 -0.0543798 0.00919416)
(0.0219676 -0.0418479 0.0113482)
(0.0203264 -0.0280095 0.0137257)
(0.0182227 -0.00882574 0.017571)
(0.0162102 0.00665895 0.0205581)
(0.01386 0.0247081 0.0234972)
(0.0109716 0.0619873 0.0279193)
(0.00687474 0.10771 0.0303723)
(0.00306821 0.127581 0.0278595)
(0.000728353 0.103858 0.0180762)
(0.000109011 -0.027486 0.0046222)
(0.00217901 -0.0834538 0.00484755)
(0.00511805 -0.127428 0.00253314)
(0.00821837 -0.156183 0.000205321)
(0.0111111 -0.171773 -0.00157847)
(0.01371 -0.180331 -0.00302255)
(0.0160114 -0.184858 -0.00425882)
(0.0182003 -0.186501 -0.00527405)
(0.0199035 -0.185964 -0.00592213)
(0.0215975 -0.183596 -0.00658172)
(0.0229119 -0.179917 -0.00717835)
(0.023972 -0.175296 -0.00776139)
(0.0246185 -0.170228 -0.008366)
(0.025099 -0.164311 -0.00870021)
(0.0254817 -0.157474 -0.00836595)
(0.0257453 -0.150026 -0.00766917)
(0.0256512 -0.142442 -0.00767779)
(0.0256426 -0.134407 -0.0078018)
(0.0254744 -0.125789 -0.00781543)
(0.0251199 -0.116625 -0.00764855)
(0.0246203 -0.106982 -0.00726402)
(0.0239861 -0.0968897 -0.00662767)
(0.0232238 -0.0863385 -0.00570264)
(0.0223379 -0.0752756 -0.00443243)
(0.0213397 -0.0636495 -0.00277237)
(0.0202235 -0.051421 -0.000697399)
(0.0189677 -0.038541 0.00177289)
(0.0176163 -0.0244208 0.00470037)
(0.0159348 -0.00660291 0.00910313)
(0.0143664 0.00797655 0.012752)
(0.0120906 0.028845 0.0174749)
(0.00938902 0.0666687 0.0244608)
(0.00568243 0.11385 0.0274051)
(0.00240749 0.132572 0.0248967)
(0.0004978 0.104671 0.0155299)
(0.000219106 -0.0329093 0.0013077)
(0.00211202 -0.0922409 -0.000302074)
(0.00470796 -0.134087 -0.0022839)
(0.00732051 -0.159686 -0.00377495)
(0.00972619 -0.174443 -0.00483422)
(0.0119321 -0.182679 -0.00561483)
(0.0139745 -0.186999 -0.00627162)
(0.0158103 -0.188754 -0.00688751)
(0.017606 -0.18882 -0.00761902)
(0.0190066 -0.187475 -0.0083266)
(0.0203625 -0.184153 -0.00921644)
(0.0214327 -0.179085 -0.00987619)
(0.0224682 -0.172323 -0.010089)
(0.0232216 -0.16514 -0.0102455)
(0.0237872 -0.157677 -0.0105828)
(0.0242219 -0.149772 -0.0111148)
(0.0244888 -0.14115 -0.0115242)
(0.0244708 -0.131924 -0.0117433)
(0.0242035 -0.122292 -0.0117669)
(0.0237269 -0.112446 -0.0116017)
(0.0230627 -0.102459 -0.011257)
(0.0222448 -0.0923299 -0.0107353)
(0.0213082 -0.0819687 -0.0100119)
(0.0202835 -0.0712515 -0.00903504)
(0.01921 -0.0601781 -0.00780034)
(0.0181026 -0.0487092 -0.00629811)
(0.0169355 -0.0367666 -0.00452371)
(0.0156727 -0.0236584 -0.00238137)
(0.0141368 -0.00650941 0.00105483)
(0.0126811 0.00990044 0.0045965)
(0.0107999 0.0315246 0.00903727)
(0.00817242 0.0712402 0.0174017)
(0.00493276 0.118101 0.0229548)
(0.00212309 0.135595 0.0215389)
(0.000426108 0.105013 0.0129648)
(0.000178067 -0.0425829 0.000534034)
(0.00192861 -0.111925 -0.000515703)
(0.00433669 -0.157144 -0.00182673)
(0.00675173 -0.1821 -0.00330409)
(0.00895397 -0.194076 -0.00476036)
(0.0109419 -0.199387 -0.00610473)
(0.0129136 -0.201186 -0.00737534)
(0.0145869 -0.200621 -0.00836411)
(0.0162692 -0.197525 -0.00936694)
(0.0175081 -0.192504 -0.010307)
(0.0186658 -0.186173 -0.0110197)
(0.0195129 -0.179467 -0.0118152)
(0.0201922 -0.172449 -0.0128187)
(0.020783 -0.1649 -0.0139843)
(0.021252 -0.156535 -0.0150368)
(0.021521 -0.147278 -0.0158697)
(0.0216061 -0.137271 -0.0164422)
(0.0215117 -0.126709 -0.0167352)
(0.0212408 -0.115944 -0.0167688)
(0.0208144 -0.105153 -0.016571)
(0.0202607 -0.0944312 -0.0161751)
(0.0195969 -0.0838516 -0.0156203)
(0.0188358 -0.0734259 -0.0149377)
(0.0179957 -0.0630814 -0.0141368)
(0.0171044 -0.0526441 -0.0132158)
(0.0161737 -0.0417755 -0.012114)
(0.0151763 -0.0298634 -0.0106547)
(0.0140453 -0.0161105 -0.00861116)
(0.0126338 6.93655e-05 -0.00556556)
(0.0114235 0.0141646 -0.00252212)
(0.00962608 0.0386222 0.00332739)
(0.00711334 0.0786149 0.0113017)
(0.00420074 0.123522 0.017727)
(0.00171374 0.139398 0.0174242)
(0.000264116 0.105437 0.0102837)
(0.000164498 -0.0470668 -0.000670301)
(0.00170935 -0.118884 -0.00176041)
(0.00377804 -0.162406 -0.00261504)
(0.00575309 -0.185013 -0.00379626)
(0.00757943 -0.195933 -0.00509098)
(0.00930021 -0.200941 -0.00636086)
(0.0110097 -0.202524 -0.00759342)
(0.0123596 -0.201836 -0.0086806)
(0.0135717 -0.198338 -0.0101124)
(0.0147009 -0.192749 -0.0115558)
(0.0155549 -0.186217 -0.0130904)
(0.0163584 -0.178683 -0.0145892)
(0.016989 -0.17024 -0.0159303)
(0.0173771 -0.161068 -0.0170252)
(0.0175665 -0.1514 -0.0178678)
(0.0176144 -0.141308 -0.0184586)
(0.0175654 -0.130642 -0.0187784)
(0.0174312 -0.119574 -0.018823)
(0.0171935 -0.108502 -0.0186302)
(0.0168542 -0.0976652 -0.0182492)
(0.0164371 -0.0870824 -0.0177171)
(0.0159562 -0.0767122 -0.0170683)
(0.0154126 -0.0664934 -0.0163297)
(0.0147975 -0.0563515 -0.0155223)
(0.014113 -0.0461733 -0.0146665)
(0.0133656 -0.0356949 -0.0137359)
(0.012559 -0.0243538 -0.0126023)
(0.0116723 -0.0112063 -0.0110129)
(0.0106765 0.00425452 -0.00867562)
(0.00970677 0.0190005 -0.00613249)
(0.00811034 0.0455926 -0.000975577)
(0.00600483 0.0862348 0.00688273)
(0.00350916 0.128907 0.013377)
(0.0013545 0.143003 0.0138511)
(0.000148471 0.105305 0.00827001)
(0.000151457 -0.0539505 -0.000369195)
(0.00168786 -0.132941 0.000247516)
(0.00365012 -0.1784 0.000348543)
(0.00544018 -0.200015 -0.00074707)
(0.00703484 -0.209051 -0.00233441)
(0.00859904 -0.211918 -0.00406808)
(0.0100021 -0.21092 -0.00562317)
(0.0112171 -0.206276 -0.00751066)
(0.0123464 -0.199991 -0.00965028)
(0.0131343 -0.192825 -0.0117681)
(0.0137462 -0.18458 -0.0138643)
(0.014136 -0.175237 -0.0157894)
(0.0142997 -0.165173 -0.0174741)
(0.0143291 -0.154763 -0.0188793)
(0.0142719 -0.144235 -0.0199923)
(0.0141664 -0.133662 -0.0208165)
(0.014049 -0.122921 -0.0213468)
(0.0139495 -0.111711 -0.0215493)
(0.0138411 -0.100296 -0.0214445)
(0.0136752 -0.0892533 -0.0211289)
(0.0134505 -0.078626 -0.0206539)
(0.0131712 -0.0683428 -0.0200585)
(0.0128383 -0.058298 -0.0193702)
(0.012445 -0.0483758 -0.0186103)
(0.0119863 -0.0384309 -0.0178026)
(0.0114478 -0.0282002 -0.0169385)
(0.0108084 -0.0171284 -0.0159279)
(0.0100385 -0.00394047 -0.0144191)
(0.00931564 0.00997526 -0.0125144)
(0.0084579 0.0259252 -0.0100256)
(0.00693926 0.0535069 -0.0049802)
(0.00501458 0.0941794 0.00275767)
(0.0028671 0.134277 0.00923437)
(0.00103481 0.146538 0.0103069)
(3.02087e-05 0.104954 0.00561967)
(0.000119031 -0.0587066 -8.91344e-05)
(0.001564 -0.140741 0.0017634)
(0.00326321 -0.184512 0.00247531)
(0.0046738 -0.203605 0.00153336)
(0.00591376 -0.211074 -3.37018e-05)
(0.00712504 -0.213048 -0.00179779)
(0.00795485 -0.211777 -0.00344468)
(0.00897349 -0.20641 -0.00622214)
(0.00951351 -0.19925 -0.00908449)
(0.0100036 -0.189888 -0.0120381)
(0.0101879 -0.179158 -0.0148314)
(0.0101775 -0.167907 -0.0172601)
(0.0100885 -0.156659 -0.0192101)
(0.00998334 -0.145656 -0.0206687)
(0.00989644 -0.134955 -0.0216858)
(0.00983737 -0.124496 -0.0223334)
(0.00980785 -0.11413 -0.0226729)
(0.00981599 -0.103599 -0.0227265)
(0.00988271 -0.0926398 -0.0224841)
(0.00993928 -0.0817994 -0.0220455)
(0.00994652 -0.0713741 -0.0215012)
(0.00990559 -0.0613164 -0.020893)
(0.00981275 -0.0514981 -0.0202427)
(0.00965855 -0.0417719 -0.0195619)
(0.00943609 -0.031943 -0.0188584)
(0.00913646 -0.0216967 -0.0181082)
(0.00873775 -0.0106081 -0.0172517)
(0.00825369 0.00182787 -0.0160928)
(0.00780864 0.0143654 -0.014728)
(0.00708948 0.0336669 -0.0121676)
(0.00583399 0.062757 -0.00745133)
(0.00413091 0.103088 -0.000329194)
(0.00231361 0.140083 0.00581678)
(0.000772067 0.150287 0.00709778)
(-5.74935e-05 0.104635 0.00354154)
(0.000120939 -0.0653543 0.00121237)
(0.00152169 -0.15364 0.00552767)
(0.00295299 -0.197821 0.00725831)
(0.00401493 -0.215022 0.00647968)
(0.004966 -0.220305 0.00472346)
(0.0058144 -0.219607 0.00258419)
(0.00658212 -0.214134 -0.000410082)
(0.00705307 -0.206407 -0.00375589)
(0.00726334 -0.195916 -0.007541)
(0.0071682 -0.183777 -0.0114822)
(0.00691097 -0.171241 -0.0151113)
(0.00664925 -0.159155 -0.0180979)
(0.00646153 -0.147769 -0.0203657)
(0.0063761 -0.13699 -0.0219905)
(0.00638634 -0.126631 -0.0230907)
(0.00647069 -0.11651 -0.0237756)
(0.00660518 -0.106461 -0.0241285)
(0.00677469 -0.0963145 -0.0242002)
(0.00697268 -0.0858825 -0.0240031)
(0.00720942 -0.0750817 -0.023539)
(0.00739601 -0.0646663 -0.0229755)
(0.00753823 -0.054657 -0.0223614)
(0.00762209 -0.044903 -0.0217154)
(0.00763894 -0.0352332 -0.0210465)
(0.00758705 -0.0254581 -0.0203627)
(0.00746871 -0.0153212 -0.0196507)
(0.00727152 -0.00449404 -0.0188705)
(0.00704513 0.00762389 -0.0178164)
(0.00669096 0.0205477 -0.0164984)
(0.00595436 0.0407545 -0.0139434)
(0.00486615 0.0709714 -0.0093564)
(0.00338737 0.111113 -0.00269733)
(0.00186409 0.145378 0.0029405)
(0.000576731 0.153604 0.00448355)
(-9.81211e-05 0.104364 0.00203236)
(0.000121227 -0.0710317 0.00274322)
(0.0013041 -0.162518 0.00905381)
(0.00221541 -0.204322 0.0113689)
(0.0027047 -0.218852 0.0107905)
(0.00312056 -0.222541 0.00925712)
(0.00332035 -0.220819 0.00728866)
(0.00363861 -0.214028 0.00382064)
(0.00362799 -0.203231 -0.000434513)
(0.00343384 -0.189468 -0.0056194)
(0.00306838 -0.174995 -0.0109034)
(0.0027369 -0.161484 -0.0154242)
(0.00253708 -0.149374 -0.0188649)
(0.00249242 -0.1384 -0.0213002)
(0.00258426 -0.128157 -0.0229364)
(0.00278005 -0.118318 -0.0239716)
(0.00304731 -0.108656 -0.0245583)
(0.00336021 -0.0990121 -0.0248043)
(0.00370117 -0.089247 -0.0247798)
(0.00405798 -0.0792232 -0.0245203)
(0.00445128 -0.0688832 -0.0240429)
(0.00482769 -0.0586332 -0.0234586)
(0.00514747 -0.0487007 -0.0228544)
(0.00540898 -0.0389895 -0.0222477)
(0.00560719 -0.0293523 -0.021646)
(0.00574972 -0.0196433 -0.0210637)
(0.00582467 -0.00965112 -0.0205041)
(0.00584286 0.00111104 -0.0198123)
(0.00579915 0.0123122 -0.0189806)
(0.00556403 0.0276249 -0.0175789)
(0.00495213 0.0491126 -0.0150899)
(0.00400507 0.0800711 -0.0107616)
(0.00272036 0.119473 -0.00460526)
(0.00146638 0.150785 0.000438481)
(0.000419748 0.156907 0.00220368)
(-0.000122849 0.104209 0.00083874)
(0.000121404 -0.0774794 0.0049637)
(0.000858803 -0.173675 0.0137849)
(0.00106483 -0.214215 0.0168512)
(0.000973095 -0.226256 0.0164068)
(0.000793875 -0.227527 0.0147127)
(0.000719047 -0.222691 0.012113)
(0.000298676 -0.213185 0.00913897)
(3.87177e-05 -0.199047 0.00413797)
(-0.00034476 -0.182741 -0.00207957)
(-0.000560748 -0.167233 -0.00848098)
(-0.000713735 -0.153632 -0.0138453)
(-0.000700709 -0.141861 -0.0178803)
(-0.000533483 -0.131344 -0.0207301)
(-0.000244225 -0.121517 -0.0226638)
(0.000135072 -0.112009 -0.0239118)
(0.000574142 -0.102609 -0.0246485)
(0.00104848 -0.0931963 -0.0250019)
(0.00154064 -0.0836761 -0.0250606)
(0.00204214 -0.0739508 -0.0248802)
(0.00254178 -0.0639297 -0.0244903)
(0.00305454 -0.0536419 -0.0239179)
(0.00349953 -0.0436201 -0.023325)
(0.00389861 -0.0338664 -0.0227415)
(0.00423615 -0.0242503 -0.0221775)
(0.00451367 -0.0146188 -0.021645)
(0.00471773 -0.0047241 -0.0211422)
(0.00488664 0.00602061 -0.0205048)
(0.0049064 0.0176774 -0.0196856)
(0.0046738 0.0338169 -0.0182684)
(0.00415605 0.0564169 -0.0158127)
(0.00333381 0.0881553 -0.0117109)
(0.00221721 0.126843 -0.00609836)
(0.00118931 0.155537 -0.00157449)
(0.000336216 0.159776 0.000362263)
(-0.00011892 0.104134 9.8757e-06)
(0.000150171 -0.0815458 0.00695048)
(0.000163664 -0.179392 0.0174594)
(-0.000446337 -0.217716 0.0211001)
(-0.00113073 -0.227995 0.0211234)
(-0.00181482 -0.228267 0.0199014)
(-0.00247705 -0.222487 0.0175742)
(-0.00283248 -0.211262 0.0134456)
(-0.00327774 -0.196007 0.0083618)
(-0.00341715 -0.178856 0.00229567)
(-0.00346779 -0.162271 -0.00356092)
(-0.00323232 -0.147895 -0.00947593)
(-0.00294594 -0.135872 -0.0147412)
(-0.00263507 -0.125362 -0.0184603)
(-0.00224882 -0.115685 -0.0210503)
(-0.00179195 -0.106369 -0.0227589)
(-0.00128016 -0.0971573 -0.0238117)
(-0.000731617 -0.0879051 -0.0243787)
(-0.000163378 -0.0785205 -0.0245833)
(0.000411197 -0.068927 -0.0245101)
(0.000976708 -0.0590637 -0.0242144)
(0.00156481 -0.0489626 -0.0237378)
(0.00210681 -0.0390264 -0.0232332)
(0.00261362 -0.0292591 -0.0227307)
(0.00306408 -0.0195608 -0.0222424)
(0.00345364 -0.00982747 -0.0217833)
(0.00376237 9.68434e-05 -0.02136)
(0.00400244 0.010571 -0.0208209)
(0.00408851 0.0237565 -0.0199689)
(0.00390259 0.0409406 -0.0185733)
(0.00344748 0.0645066 -0.0162275)
(0.00272336 0.0967182 -0.0124203)
(0.00176619 0.13427 -0.00732881)
(0.000942494 0.160168 -0.00329141)
(0.000255912 0.162512 -0.00120513)
(-0.000118578 0.104128 -0.000716837)
(2.80392e-05 -0.0843628 0.00858575)
(-0.000555204 -0.184051 0.0203338)
(-0.00171527 -0.222368 0.0248394)
(-0.00274142 -0.231626 0.0253874)
(-0.00368704 -0.231101 0.0243893)
(-0.00446385 -0.224369 0.0221087)
(-0.00496693 -0.212414 0.0184541)
(-0.0051325 -0.196782 0.0136489)
(-0.00497902 -0.179425 0.00798888)
(-0.00452877 -0.162226 0.00179982)
(-0.00403272 -0.146686 -0.00373804)
(-0.00355049 -0.133148 -0.00813185)
(-0.00307842 -0.121509 -0.0127373)
(-0.00266873 -0.111384 -0.0167176)
(-0.00224942 -0.101936 -0.0194493)
(-0.00179196 -0.0927429 -0.021277)
(-0.00128906 -0.0835674 -0.0224139)
(-0.000749639 -0.0742819 -0.0230378)
(-0.000184406 -0.0648048 -0.0232799)
(0.000395113 -0.0550874 -0.0232349)
(0.000992986 -0.04515 -0.0229753)
(0.00157933 -0.0351879 -0.0226063)
(0.00211417 -0.0253614 -0.0222204)
(0.00259736 -0.0155981 -0.0218337)
(0.00302488 -0.0057651 -0.0214596)
(0.00337999 0.00438489 -0.0210974)
(0.00361964 0.015313 -0.0205897)
(0.00367307 0.0292086 -0.0197518)
(0.00350422 0.0473289 -0.0183885)
(0.003079 0.0718449 -0.0161443)
(0.00240677 0.104427 -0.0125819)
(0.00155548 0.140837 -0.0080694)
(0.000871438 0.164282 -0.00451099)
(0.000293902 0.164996 -0.00231069)
(-8.66531e-05 0.104297 -0.00094295)
(6.9896e-05 -0.0848314 0.00906969)
(-0.000854296 -0.184154 0.020849)
(-0.0025681 -0.223831 0.0263425)
(-0.00379552 -0.233651 0.0281078)
(-0.00485028 -0.233731 0.0284463)
(-0.00570547 -0.227827 0.0278278)
(-0.00621029 -0.216888 0.0260973)
(-0.00631437 -0.201896 0.0229056)
(-0.00602222 -0.184419 0.0181116)
(-0.00539161 -0.166174 0.0119662)
(-0.00457523 -0.148717 0.00511732)
(-0.00377963 -0.133175 -0.00147741)
(-0.00310826 -0.119788 -0.00657076)
(-0.00254163 -0.108077 -0.0102437)
(-0.00207729 -0.0977031 -0.0139378)
(-0.00167434 -0.0882422 -0.0170287)
(-0.00125283 -0.0790837 -0.0190823)
(-0.000800526 -0.0699333 -0.020399)
(-0.000309023 -0.0606452 -0.0211652)
(0.000213937 -0.0511465 -0.0215276)
(0.000751192 -0.0413983 -0.0215945)
(0.00130984 -0.0314322 -0.021445)
(0.001826 -0.0214794 -0.021226)
(0.0023114 -0.01154 -0.0209791)
(0.00273761 -0.00155993 -0.0207425)
(0.00309637 0.00865308 -0.0204477)
(0.00332854 0.0206622 -0.0199695)
(0.00335216 0.035393 -0.0191889)
(0.00316649 0.054416 -0.0179141)
(0.00274358 0.0797743 -0.0158255)
(0.00210622 0.112493 -0.0125668)
(0.0013421 0.147479 -0.00855261)
(0.000770691 0.168425 -0.00540172)
(0.000288244 0.167633 -0.00318391)
(-7.45268e-05 0.104811 -0.0011571)
(6.08438e-05 -0.0848212 0.00932302)
(-0.00100986 -0.18437 0.0207242)
(-0.00275577 -0.224818 0.0260745)
(-0.0043018 -0.237461 0.0286161)
(-0.00538406 -0.238475 0.0302615)
(-0.00637244 -0.233589 0.0312129)
(-0.00701781 -0.223937 0.0311809)
(-0.00727091 -0.210354 0.0299401)
(-0.00706812 -0.19385 0.0272322)
(-0.00643818 -0.175601 0.0229287)
(-0.00548333 -0.156824 0.0171514)
(-0.00434329 -0.138735 0.0103712)
(-0.00322383 -0.122392 0.00342624)
(-0.00231047 -0.108281 -0.00284937)
(-0.00160091 -0.0961678 -0.00740875)
(-0.0010274 -0.0853679 -0.0106533)
(-0.000583727 -0.0754869 -0.0137322)
(-0.000199205 -0.0661504 -0.016226)
(0.000198877 -0.0568642 -0.0178463)
(0.000615912 -0.0474277 -0.0188428)
(0.00105234 -0.0377653 -0.0193841)
(0.00152147 -0.0278891 -0.0195969)
(0.0019709 -0.0179589 -0.0196471)
(0.00240211 -0.00796842 -0.0196059)
(0.00278199 0.00223001 -0.0195155)
(0.00308444 0.0129429 -0.0192881)
(0.00324746 0.025725 -0.0188568)
(0.00322978 0.041346 -0.0181457)
(0.00301265 0.0612741 -0.0169976)
(0.00258118 0.0873528 -0.0151359)
(0.00197476 0.120044 -0.012233)
(0.0012854 0.153558 -0.00869318)
(0.00078772 0.172261 -0.00590413)
(0.000353005 0.170192 -0.00369753)
(-3.91228e-05 0.105478 -0.0011674)
(-0.00011216 -0.0840048 0.00929249)
(-0.00146983 -0.183744 0.0194503)
(-0.00331267 -0.22506 0.024146)
(-0.00494986 -0.238508 0.0265704)
(-0.00642652 -0.241656 0.027756)
(-0.00758268 -0.238473 0.0297121)
(-0.00835932 -0.23081 0.0307612)
(-0.00873495 -0.219336 0.0310546)
(-0.00864936 -0.204732 0.0304917)
(-0.00809041 -0.187808 0.0288241)
(-0.00710276 -0.169409 0.0258078)
(-0.00579102 -0.150376 0.0213267)
(-0.0043036 -0.131616 0.0155265)
(-0.00281603 -0.114104 0.0089454)
(-0.00150362 -0.0986053 0.0024169)
(-0.00052702 -0.0853244 -0.00322622)
(0.000177251 -0.0737748 -0.00727068)
(0.000717106 -0.0632467 -0.0101256)
(0.00110048 -0.0533746 -0.0127542)
(0.00142953 -0.0438069 -0.0148135)
(0.00176601 -0.0341698 -0.0161379)
(0.002126 -0.0243349 -0.0169369)
(0.00247528 -0.0143188 -0.0174104)
(0.00280912 -0.00409266 -0.0176766)
(0.00309415 0.00619674 -0.0177878)
(0.00330817 0.0176194 -0.0176996)
(0.00337567 0.031104 -0.0173826)
(0.00328488 0.0475674 -0.0167754)
(0.00301323 0.068349 -0.0157454)
(0.00255754 0.0950036 -0.0140441)
(0.00195675 0.127506 -0.0115572)
(0.00131653 0.159466 -0.00850481)
(0.000851532 0.176185 -0.00604826)
(0.000430843 0.17301 -0.00388178)
(-5.8583e-06 0.106467 -0.00101966)
(-0.000227354 -0.0814973 0.00832482)
(-0.00183466 -0.179609 0.0163941)
(-0.00381501 -0.223189 0.0200998)
(-0.00555783 -0.238746 0.0223988)
(-0.00692355 -0.242915 0.0236667)
(-0.00828395 -0.242323 0.0249468)
(-0.00912597 -0.237169 0.0261624)
(-0.00960281 -0.228286 0.0272734)
(-0.00962338 -0.216251 0.0282371)
(-0.00918899 -0.201585 0.0288287)
(-0.00830298 -0.184841 0.0287036)
(-0.00701821 -0.166593 0.0275045)
(-0.00543133 -0.14742 0.0249415)
(-0.00367316 -0.127981 0.0208811)
(-0.0019032 -0.109097 0.015477)
(-0.000284477 -0.091676 0.00927631)
(0.00103298 -0.0763662 0.00312523)
(0.00192545 -0.0632376 -0.00217338)
(0.00250437 -0.0517258 -0.00596747)
(0.00290302 -0.0411012 -0.00873774)
(0.00312593 -0.0309842 -0.0111657)
(0.00331917 -0.0209687 -0.0129339)
(0.00348964 -0.0107897 -0.0141133)
(0.00364693 -0.000367786 -0.014885)
(0.00378495 0.010191 -0.0153154)
(0.00385814 0.0223438 -0.0155192)
(0.00380185 0.0365546 -0.0154502)
(0.00360532 0.0537662 -0.0150704)
(0.00325362 0.0753044 -0.0142532)
(0.0027362 0.102444 -0.0128436)
(0.00209991 0.134703 -0.0107114)
(0.0014514 0.165187 -0.00807224)
(0.000973891 0.180239 -0.00589183)
(0.000532524 0.176108 -0.00378328)
(3.58052e-05 0.107745 -0.000746695)
(-0.000307301 -0.0775812 0.00732434)
(-0.00175424 -0.173192 0.0134918)
(-0.00337445 -0.218569 0.0157406)
(-0.0047957 -0.236864 0.0170156)
(-0.00611505 -0.243444 0.0183666)
(-0.0072335 -0.244448 0.0189007)
(-0.00808268 -0.241626 0.0194474)
(-0.00859111 -0.235445 0.0202852)
(-0.00870342 -0.226254 0.0214414)
(-0.00842913 -0.214335 0.0228625)
(-0.00777804 -0.199986 0.0243804)
(-0.00671161 -0.183585 0.0257009)
(-0.00529685 -0.165542 0.026455)
(-0.00365581 -0.146277 0.0262228)
(-0.00186172 -0.126281 0.0245887)
(-2.36935e-05 -0.106188 0.0212885)
(0.00169912 -0.086811 0.0164297)
(0.00317398 -0.0690433 0.0105785)
(0.00427526 -0.0534941 0.00464533)
(0.00490336 -0.0401627 -0.000440514)
(0.00520372 -0.0283619 -0.00408749)
(0.00524484 -0.0173728 -0.00697188)
(0.00515219 -0.00671629 -0.00927269)
(0.0050536 0.0039948 -0.0109351)
(0.00495388 0.0146779 -0.012008)
(0.00479496 0.0274578 -0.0126408)
(0.00454213 0.0423808 -0.0129436)
(0.00419434 0.060308 -0.0129016)
(0.00372215 0.0825046 -0.0124144)
(0.00310493 0.110081 -0.0113938)
(0.00238493 0.142027 -0.0096829)
(0.00167822 0.171001 -0.00746365)
(0.00115281 0.184564 -0.0055408)
(0.000648181 0.179559 -0.00351337)
(6.18143e-05 0.109364 -0.000423367)
(-0.000285563 -0.0745642 0.0065177)
(-0.00118862 -0.170253 0.012408)
(-0.00218956 -0.216901 0.0145062)
(-0.00300531 -0.236207 0.0148938)
(-0.00376233 -0.244086 0.0144293)
(-0.00436904 -0.246571 0.0134582)
(-0.00490933 -0.245471 0.0128989)
(-0.00520384 -0.241251 0.0127426)
(-0.00526117 -0.234218 0.0129795)
(-0.00501842 -0.224557 0.01368)
(-0.00451089 -0.212446 0.0149058)
(-0.00377563 -0.19814 0.0166485)
(-0.00280918 -0.18187 0.0188977)
(-0.00161331 -0.163924 0.0214023)
(-0.000306108 -0.1446 0.0236322)
(0.00117623 -0.12429 0.0248061)
(0.00279257 -0.103435 0.0242915)
(0.00435803 -0.082586 0.0218176)
(0.00575408 -0.0625621 0.0175057)
(0.00684183 -0.0442448 0.0119464)
(0.00748561 -0.0281904 0.0060651)
(0.00765893 -0.0142954 0.000980867)
(0.00741706 -0.00205557 -0.00292761)
(0.00707668 0.00841923 -0.00547894)
(0.00665776 0.020185 -0.00753319)
(0.00616349 0.0333808 -0.00897477)
(0.00563088 0.0487286 -0.0098836)
(0.00505311 0.0671903 -0.0103254)
(0.00440072 0.0899363 -0.0103041)
(0.00364835 0.117855 -0.00972634)
(0.00281845 0.149439 -0.00846031)
(0.00201891 0.176995 -0.00665792)
(0.00140957 0.189322 -0.00498731)
(0.000800872 0.183573 -0.00308202)
(7.89349e-05 0.111535 -8.63997e-05)
(-0.000200416 -0.0741653 0.00577928)
(-0.000375589 -0.170602 0.0108414)
(-0.000275819 -0.21904 0.0121475)
(-0.000165633 -0.239688 0.0119541)
(-3.36642e-05 -0.248271 0.011178)
(6.39437e-05 -0.251241 0.0101794)
(0.000173124 -0.250672 0.00897605)
(0.000306377 -0.247138 0.00774458)
(0.00048756 -0.240869 0.00664324)
(0.000710878 -0.232007 0.00581373)
(0.000914363 -0.220782 0.00539115)
(0.00125412 -0.207575 0.00538277)
(0.00140785 -0.192377 0.0065142)
(0.00178071 -0.175828 0.00893847)
(0.00243947 -0.157993 0.0127208)
(0.0033084 -0.138974 0.0169446)
(0.00429413 -0.119058 0.0203583)
(0.00540359 -0.098221 0.0224809)
(0.00660568 -0.0767182 0.0227915)
(0.00779469 -0.0550952 0.0209454)
(0.00872802 -0.0341451 0.0169799)
(0.00925181 -0.0148392 0.0114603)
(0.00920575 0.00162446 0.00561171)
(0.00882103 0.0135882 0.00143105)
(0.0082171 0.0266267 -0.00199635)
(0.0074584 0.0405107 -0.00455974)
(0.00665147 0.0562142 -0.00635666)
(0.00583058 0.074957 -0.0075057)
(0.00499308 0.0979929 -0.00805886)
(0.00410871 0.126028 -0.00797333)
(0.00318534 0.15713 -0.00715829)
(0.00230396 0.183346 -0.00575344)
(0.00160612 0.194641 -0.00432851)
(0.000898411 0.188194 -0.00258934)
(6.30989e-05 0.114217 0.000161318)
(-0.00013522 -0.0758987 0.00437746)
(0.000473655 -0.176077 0.00910838)
(0.0015878 -0.227277 0.0109399)
(0.00268272 -0.248786 0.0110211)
(0.00358124 -0.257314 0.0103819)
(0.00430078 -0.259974 0.00936859)
(0.00483995 -0.259005 0.00814001)
(0.00524652 -0.254894 0.00657408)
(0.00549784 -0.247838 0.00480959)
(0.00554416 -0.237944 0.00303085)
(0.00549266 -0.225241 0.00165573)
(0.00502105 -0.209924 0.00138719)
(0.00470103 -0.194011 0.00142828)
(0.00435231 -0.178173 0.00183359)
(0.00417111 -0.162549 0.00285777)
(0.0042403 -0.146263 0.00553831)
(0.00460264 -0.128657 0.00924072)
(0.00533839 -0.109748 0.0132225)
(0.0062636 -0.0894887 0.0167431)
(0.00720881 -0.0678919 0.0190607)
(0.00814856 -0.0450389 0.0194702)
(0.00892246 -0.0214247 0.0174157)
(0.00925076 0.000836116 0.0130651)
(0.00916151 0.0163415 0.00889527)
(0.00871373 0.0322652 0.00428468)
(0.00795444 0.0477492 0.000357803)
(0.00705825 0.0641333 -0.00260164)
(0.00611631 0.083126 -0.00464705)
(0.00516205 0.106272 -0.00586484)
(0.00420181 0.134263 -0.00627568)
(0.00324928 0.16485 -0.00586285)
(0.00234071 0.189909 -0.00479716)
(0.0015916 0.200369 -0.00360024)
(0.000854099 0.193213 -0.00206786)
(1.1611e-05 0.116978 0.00028552)
(-0.000125981 -0.0808082 0.00442379)
(0.00100464 -0.186809 0.0102399)
(0.00250335 -0.2396 0.0128057)
(0.00375829 -0.260616 0.0130093)
(0.00478144 -0.268183 0.012222)
(0.00560134 -0.26968 0.0109581)
(0.00615667 -0.267468 0.00948747)
(0.00645919 -0.261714 0.00757786)
(0.0065221 -0.252643 0.00532221)
(0.00612211 -0.240398 0.00280718)
(0.0057612 -0.225572 0.000907517)
(0.00523046 -0.209917 -0.000661206)
(0.00475042 -0.194013 -0.00163551)
(0.00436942 -0.178232 -0.00211332)
(0.0039483 -0.162858 -0.00262218)
(0.00381905 -0.147752 -0.00183585)
(0.00375392 -0.132177 8.14928e-06)
(0.00395256 -0.115562 0.00284636)
(0.00439977 -0.0974911 0.00633763)
(0.00515004 -0.0775789 0.00996746)