/*--------------------------------*- C++ -*----------------------------------*\
| =========                 |                                                 |
| \\      /  F ield         | OpenFOAM: The Open Source CFD Toolbox           |
|  \\    /   O peration     | Version:  2.0.x                                 |
|   \\  /    A nd           | Web:      www.OpenFOAM.org                      |
|    \\/     M anipulation  |                                                 |
\*---------------------------------------------------------------------------*/
FoamFile
{
    version     2.0;
    format      ascii;
    class       volScalarField;
    location    "550";
    object      alphat;
}
// * * * * * * * * * * * * * * * * * * * * * * * * * * * * * * * * * * * * * //

dimensions      [1 -1 -1 0 0 0 0];

internalField   nonuniform List<scalar> 
78750
(
1.43986e-07
1.46975e-05
1.76651e-05
2.20593e-05
2.61951e-05
2.67071e-05
2.64495e-05
2.60455e-05
2.56504e-05
2.58301e-05
2.57873e-05
2.63534e-05
2.66598e-05
2.71062e-05
2.77046e-05
2.82857e-05
2.89058e-05
2.94905e-05
3.0248e-05
3.04601e-05
3.2329e-05
3.31983e-05
3.28564e-05
3.47263e-05
3.46819e-05
3.3969e-05
3.3858e-05
3.31488e-05
3.1556e-05
2.89923e-05
2.69117e-05
2.42915e-05
2.08075e-05
1.67133e-05
1.64712e-07
1.24621e-07
2.10921e-05
1.21893e-05
9.01835e-06
1.11473e-05
1.97352e-05
3.03749e-05
3.59764e-05
3.98426e-05
4.27183e-05
4.4383e-05
4.69615e-05
4.93579e-05
5.07635e-05
5.34072e-05
5.55972e-05
5.79117e-05
6.01753e-05
6.25704e-05
6.51664e-05
6.28838e-05
6.12515e-05
6.4643e-05
6.95028e-05
7.20346e-05
6.91119e-05
6.48797e-05
4.57064e-05
4.23504e-05
4.7144e-05
3.37392e-05
2.44372e-05
2.10568e-05
2.37132e-05
3.44275e-07
3.32239e-08
4.91543e-06
4.9015e-06
7.03198e-06
1.1813e-05
2.13933e-05
3.64236e-05
5.24725e-05
6.28971e-05
6.84149e-05
7.15034e-05
7.31565e-05
7.47059e-05
7.59108e-05
7.65381e-05
7.6903e-05
7.70916e-05
7.67988e-05
7.59811e-05
7.53684e-05
7.69547e-05
7.5592e-05
6.90291e-05
6.23598e-05
6.02769e-05
5.89024e-05
5.16939e-05
3.87679e-05
3.90262e-05
3.69369e-05
2.46062e-05
1.81613e-05
1.7594e-05
3.06481e-05
4.05587e-07
2.853e-08
4.0018e-06
7.61883e-06
1.45227e-05
2.84698e-05
4.86357e-05
6.52772e-05
7.42488e-05
7.93469e-05
8.27227e-05
8.50302e-05
8.71419e-05
8.86568e-05
8.96819e-05
8.92956e-05
8.81907e-05
8.65515e-05
8.42697e-05
8.09612e-05
7.69017e-05
7.12054e-05
6.47375e-05
6.12489e-05
5.78245e-05
5.32658e-05
5.2168e-05
4.83853e-05
3.76128e-05
3.73847e-05
3.25218e-05
2.0429e-05
1.44447e-05
1.49871e-05
3.18809e-05
4.33134e-07
3.99416e-08
4.41909e-06
1.00125e-05
1.99322e-05
3.46279e-05
4.99888e-05
6.27377e-05
7.26178e-05
8.00172e-05
8.52536e-05
8.8261e-05
8.97694e-05
8.90353e-05
8.75065e-05
8.65348e-05
8.53681e-05
8.36103e-05
8.15321e-05
7.90407e-05
7.50032e-05
7.02292e-05
6.69511e-05
6.3483e-05
5.81651e-05
5.39613e-05
5.28025e-05
4.80407e-05
3.66538e-05
3.44604e-05
3.05876e-05
1.80813e-05
1.20718e-05
1.34647e-05
3.46952e-05
4.32081e-07
8.07837e-08
4.71684e-06
1.18414e-05
2.58497e-05
4.75719e-05
6.62598e-05
7.71468e-05
8.3558e-05
8.75643e-05
9.02005e-05
9.20032e-05
9.32526e-05
9.38909e-05
9.33825e-05
9.20962e-05
9.00825e-05
8.7498e-05
8.47062e-05
8.17258e-05
7.75193e-05
7.12027e-05
6.54264e-05
6.10985e-05
5.69304e-05
5.3771e-05
5.29078e-05
4.82119e-05
3.71029e-05
3.31353e-05
2.89353e-05
1.63305e-05
1.06043e-05
1.25505e-05
3.2817e-05
4.21532e-07
1.15707e-07
5.24093e-06
1.36978e-05
2.95957e-05
5.05988e-05
6.67806e-05
7.71795e-05
8.41799e-05
8.87659e-05
9.11841e-05
9.21596e-05
9.17062e-05
9.05967e-05
8.9497e-05
8.82151e-05
8.62996e-05
8.37526e-05
8.05477e-05
7.71684e-05
7.41672e-05
7.07605e-05
6.65132e-05
6.18453e-05
5.77642e-05
5.4916e-05
5.40232e-05
5.12598e-05
4.25459e-05
3.05107e-05
2.4873e-05
1.53989e-05
9.83631e-06
1.21006e-05
3.21001e-05
4.02969e-07
1.53174e-07
5.56817e-06
1.50645e-05
3.31251e-05
5.53071e-05
7.20232e-05
8.15035e-05
8.65449e-05
8.92851e-05
9.10809e-05
9.22832e-05
9.30044e-05
9.30567e-05
9.23417e-05
9.10211e-05
8.8989e-05
8.63444e-05
8.31209e-05
7.93451e-05
7.52188e-05
7.09301e-05
6.6593e-05
6.25694e-05
5.93862e-05
5.71368e-05
5.50584e-05
5.16284e-05
4.24663e-05
2.9759e-05
2.33528e-05
1.45181e-05
9.49912e-06
1.20169e-05
2.84517e-05
3.81161e-07
1.68237e-07
5.79601e-06
1.55725e-05
3.36259e-05
5.52007e-05
7.06268e-05
8.00507e-05
8.57594e-05
8.90091e-05
9.04721e-05
9.08806e-05
9.04989e-05
8.96364e-05
8.84827e-05
8.71377e-05
8.55803e-05
8.37176e-05
8.1332e-05
7.82915e-05
7.46758e-05
7.08603e-05
6.71469e-05
6.38049e-05
6.09559e-05
5.85284e-05
5.62466e-05
5.22666e-05
4.24538e-05
2.94614e-05
2.21605e-05
1.37634e-05
9.37232e-06
1.22009e-05
2.47096e-05
3.58019e-07
1.80146e-07
5.86634e-06
1.59028e-05
3.4868e-05
5.77891e-05
7.33682e-05
8.19149e-05
8.65556e-05
8.8981e-05
9.01523e-05
9.05737e-05
9.04745e-05
8.99389e-05
8.9001e-05
8.76791e-05
8.59979e-05
8.39045e-05
8.14452e-05
7.85574e-05
7.5386e-05
7.18631e-05
6.82555e-05
6.48925e-05
6.1996e-05
5.93876e-05
5.57854e-05
4.92033e-05
3.85328e-05
3.112e-05
2.35385e-05
1.34699e-05
9.45792e-06
1.24051e-05
2.16912e-05
3.46546e-07
1.8207e-07
5.89195e-06
1.59226e-05
3.45532e-05
5.6595e-05
7.20889e-05
8.12341e-05
8.65273e-05
8.93113e-05
9.03219e-05
9.03905e-05
8.97525e-05
8.86571e-05
8.72873e-05
8.57702e-05
8.40847e-05
8.22106e-05
8.00152e-05
7.75582e-05
7.46876e-05
7.17603e-05
6.88531e-05
6.60155e-05
6.33077e-05
6.05216e-05
5.67343e-05
5.01517e-05
3.94687e-05
3.23235e-05
2.34412e-05
1.34532e-05
9.66307e-06
1.27425e-05
1.97873e-05
3.46108e-07
1.86286e-07
5.93182e-06
1.60845e-05
3.5336e-05
5.85217e-05
7.43588e-05
8.32542e-05
8.82637e-05
9.08935e-05
9.18643e-05
9.19709e-05
9.13676e-05
9.02444e-05
8.88787e-05
8.73867e-05
8.5312e-05
8.26233e-05
8.00441e-05
7.78613e-05
7.605e-05
7.37182e-05
7.0476e-05
6.6828e-05
6.33333e-05
6.00694e-05
5.61079e-05
4.95584e-05
3.98503e-05
3.41139e-05
2.31858e-05
1.34463e-05
1.02131e-05
1.34924e-05
1.79776e-05
3.53958e-07
1.93903e-07
5.95631e-06
1.61495e-05
3.52823e-05
5.80253e-05
7.38543e-05
8.30624e-05
8.85094e-05
9.14823e-05
9.25331e-05
9.25613e-05
9.1706e-05
9.01837e-05
8.8102e-05
8.55724e-05
8.37673e-05
8.2645e-05
8.06627e-05
7.80559e-05
7.59159e-05
7.42425e-05
7.2285e-05
6.94239e-05
6.59317e-05
6.2276e-05
5.77697e-05
4.98892e-05
3.93855e-05
3.37582e-05
2.31518e-05
1.37248e-05
1.06744e-05
1.42491e-05
1.6779e-05
3.71846e-07
2.07254e-07
6.10037e-06
1.66891e-05
3.67375e-05
6.01285e-05
7.57675e-05
8.46522e-05
8.97757e-05
9.24201e-05
9.35081e-05
9.35676e-05
9.26486e-05
9.05986e-05
8.83045e-05
8.66559e-05
8.4981e-05
8.2827e-05
8.00907e-05
7.7184e-05
7.50816e-05
7.41379e-05
7.36129e-05
7.2585e-05
7.02763e-05
6.59513e-05
5.91616e-05
4.95988e-05
3.91305e-05
3.35209e-05
2.29511e-05
1.38818e-05
1.11519e-05
1.53917e-05
1.54605e-05
3.88382e-07
2.2452e-07
6.23834e-06
1.71799e-05
3.77232e-05
6.09731e-05
7.62964e-05
8.50337e-05
9.00483e-05
9.24715e-05
9.30365e-05
9.19352e-05
8.99536e-05
8.87119e-05
8.77817e-05
8.58449e-05
8.33921e-05
8.10201e-05
7.83275e-05
7.54025e-05
7.33624e-05
7.30189e-05
7.36474e-05
7.40672e-05
7.31899e-05
6.95379e-05
6.1903e-05
5.18211e-05
4.59098e-05
3.42197e-05
2.09697e-05
1.37873e-05
1.15608e-05
1.67494e-05
1.42122e-05
3.98073e-07
2.41127e-07
6.44519e-06
1.79297e-05
3.95571e-05
6.33079e-05
7.8242e-05
8.64442e-05
9.08734e-05
9.26921e-05
9.28155e-05
9.12779e-05
8.98307e-05
8.82526e-05
8.57366e-05
8.32635e-05
8.10571e-05
7.90424e-05
7.68316e-05
7.41898e-05
7.23014e-05
7.25377e-05
7.41531e-05
7.56057e-05
7.57562e-05
7.32255e-05
6.5867e-05
5.55327e-05
4.78642e-05
3.37597e-05
2.04805e-05
1.37859e-05
1.21508e-05
1.88083e-05
1.2956e-05
3.98397e-07
2.57753e-07
6.6027e-06
1.84795e-05
4.07765e-05
6.45568e-05
7.90205e-05
8.67357e-05
9.0529e-05
9.13335e-05
9.02744e-05
8.90336e-05
8.73676e-05
8.48184e-05
8.24921e-05
8.04589e-05
7.87373e-05
7.71685e-05
7.54458e-05
7.32765e-05
7.15592e-05
7.20339e-05
7.43004e-05
7.64492e-05
7.7267e-05
7.58438e-05
7.02903e-05
6.05084e-05
5.09496e-05
3.47328e-05
2.06108e-05
1.38187e-05
1.26265e-05
2.07184e-05
1.21351e-05
3.96682e-07
2.71226e-07
6.77188e-06
1.90742e-05
4.22334e-05
6.61957e-05
8.00628e-05
8.70142e-05
8.99323e-05
8.98038e-05
8.84472e-05
8.60964e-05
8.3036e-05
8.06068e-05
7.89397e-05
7.79397e-05
7.73113e-05
7.67113e-05
7.57377e-05
7.41489e-05
7.24867e-05
7.28106e-05
7.53162e-05
7.80196e-05
7.96736e-05
7.9047e-05
7.44171e-05
6.83046e-05
5.34367e-05
3.48641e-05
2.17136e-05
1.44477e-05
1.32698e-05
2.25465e-05
1.1538e-05
3.98118e-07
2.83605e-07
6.88835e-06
1.94751e-05
4.32572e-05
6.71797e-05
8.03498e-05
8.64617e-05
8.82494e-05
8.68155e-05
8.40343e-05
8.0875e-05
7.8097e-05
7.64245e-05
7.60123e-05
7.64453e-05
7.71032e-05
7.74687e-05
7.70655e-05
7.57445e-05
7.39344e-05
7.39098e-05
7.62763e-05
7.91438e-05
8.12355e-05
8.11301e-05
7.69539e-05
7.03937e-05
5.45436e-05
3.60349e-05
2.29515e-05
1.54867e-05
1.42834e-05
2.48837e-05
1.10391e-05
4.01196e-07
2.94769e-07
7.001e-06
1.98884e-05
4.4453e-05
6.84572e-05
8.08188e-05
8.58645e-05
8.64928e-05
8.39452e-05
7.96819e-05
7.57824e-05
7.32472e-05
7.26701e-05
7.38163e-05
7.59324e-05
7.81112e-05
7.96032e-05
7.98872e-05
7.88694e-05
7.70479e-05
7.64855e-05
7.81713e-05
8.10331e-05
8.3819e-05
8.40607e-05
8.22365e-05
7.0768e-05
5.24926e-05
3.6378e-05
2.39096e-05
1.66172e-05
1.57158e-05
2.78701e-05
1.06614e-05
4.0688e-07
3.09909e-07
7.10922e-06
2.02472e-05
4.53278e-05
6.91441e-05
8.06544e-05
8.45005e-05
8.33769e-05
7.98866e-05
7.54723e-05
7.12044e-05
6.91458e-05
6.96998e-05
7.24301e-05
7.63162e-05
8.01279e-05
8.28441e-05
8.38943e-05
8.32081e-05
8.12776e-05
7.98657e-05
8.03404e-05
8.2216e-05
8.42479e-05
8.45115e-05
8.29385e-05
7.10133e-05
5.27387e-05
3.69393e-05
2.48293e-05
1.78266e-05
1.74577e-05
3.13558e-05
1.04094e-05
4.15407e-07
3.27148e-07
7.28082e-06
2.08111e-05
4.65011e-05
7.00369e-05
8.0678e-05
8.33664e-05
8.09697e-05
7.63591e-05
7.11112e-05
6.68871e-05
6.54121e-05
6.71186e-05
7.14408e-05
7.71277e-05
8.26343e-05
8.66563e-05
8.85307e-05
8.81729e-05
8.6122e-05
8.38581e-05
8.31599e-05
8.42935e-05
8.65632e-05
8.9187e-05
8.27746e-05
6.77956e-05
5.20929e-05
3.71775e-05
2.56133e-05
1.90678e-05
1.94218e-05
3.50436e-05
1.02374e-05
4.24576e-07
3.4051e-07
7.43176e-06
2.13147e-05
4.75154e-05
7.06936e-05
8.04695e-05
8.20513e-05
7.86764e-05
7.26918e-05
6.66381e-05
6.27176e-05
6.20569e-05
6.47835e-05
7.03257e-05
7.74186e-05
8.43508e-05
8.95729e-05
9.22613e-05
9.23423e-05
9.03865e-05
8.75963e-05
8.60707e-05
8.63698e-05
8.75854e-05
8.87139e-05
8.13224e-05
6.66739e-05
5.15204e-05
3.72895e-05
2.63405e-05
2.03295e-05
2.15177e-05
3.85844e-05
1.01372e-05
4.33217e-07
3.42342e-07
7.52767e-06
2.16286e-05
4.82423e-05
7.11337e-05
8.00591e-05
8.05978e-05
7.59393e-05
6.90942e-05
6.28923e-05
5.91956e-05
5.88946e-05
6.20319e-05
6.8139e-05
7.61303e-05
8.43e-05
9.08611e-05
9.46647e-05
9.54621e-05
9.37548e-05
9.08099e-05
8.89164e-05
8.92312e-05
9.18453e-05
8.96679e-05
7.88659e-05
6.51995e-05
5.06905e-05
3.72638e-05
2.70445e-05
2.16708e-05
2.38041e-05
4.17622e-05
1.00965e-05
4.42139e-07
3.43834e-07
7.57513e-06
2.18705e-05
4.90502e-05
7.15833e-05
7.94986e-05
7.89358e-05
7.26501e-05
6.52346e-05
5.94106e-05
5.62165e-05
5.63813e-05
5.98001e-05
6.61706e-05
7.47421e-05
8.40321e-05
9.21256e-05
9.74292e-05
9.93745e-05
9.84543e-05
9.60154e-05
9.41252e-05
9.36363e-05
9.44279e-05
8.92105e-05
7.73379e-05
6.4281e-05
5.03865e-05
3.75985e-05
2.79402e-05
2.31689e-05
2.63213e-05
4.44996e-05
1.0112e-05
4.54096e-07
3.58759e-07
7.64027e-06
2.23749e-05
5.08479e-05
7.27818e-05
7.92201e-05
7.64122e-05
6.788e-05
6.01269e-05
5.49699e-05
5.31136e-05
5.48142e-05
5.95435e-05
6.68473e-05
7.61802e-05
8.63991e-05
9.572e-05
0.0001023
0.000105204
0.00010477
0.000102422
0.000100163
9.89264e-05
9.78707e-05
9.04707e-05
7.7512e-05
6.38802e-05
5.01466e-05
3.79047e-05
2.89052e-05
2.49464e-05
2.94133e-05
4.69052e-05
1.00994e-05
4.65459e-07
4.02059e-07
7.85774e-06
2.35652e-05
5.41317e-05
7.45175e-05
7.74423e-05
7.04875e-05
6.18641e-05
5.41643e-05
4.97948e-05
5.03533e-05
5.49329e-05
6.23801e-05
7.16384e-05
8.19532e-05
9.25287e-05
0.000101992
0.000108744
0.000111881
0.000111683
0.00010967
0.000107585
0.000105438
9.9961e-05
9.01474e-05
7.76251e-05
6.35192e-05
4.96666e-05
3.79107e-05
2.97753e-05
2.69144e-05
3.30035e-05
4.84429e-05
1.00118e-05
4.68431e-07
4.77627e-07
8.28169e-06
2.58126e-05
5.90766e-05
7.49999e-05
7.35354e-05
6.58563e-05
5.47727e-05
4.68694e-05
4.55545e-05
4.98194e-05
5.8098e-05
6.84377e-05
7.92494e-05
8.97054e-05
9.9522e-05
0.000108037
0.000114139
0.000117023
0.000116948
0.000115052
0.000113128
0.00010871
0.000100746
9.04296e-05
7.73136e-05
6.28967e-05
4.91372e-05
3.78973e-05
3.06209e-05
2.89237e-05
3.66409e-05
4.90076e-05
9.96068e-06
4.66823e-07
5.67491e-07
8.80294e-06
2.95235e-05
6.35582e-05
7.50586e-05
7.03406e-05
5.75726e-05
4.69865e-05
4.32575e-05
4.56272e-05
5.23245e-05
6.22064e-05
7.31871e-05
8.40117e-05
9.38945e-05
0.000102236
0.000109051
0.000113792
0.000116108
0.000116475
0.000116921
0.000116155
0.000108541
9.83978e-05
8.84913e-05
7.61512e-05
6.22726e-05
4.89217e-05
3.81382e-05
3.14679e-05
3.06494e-05
3.96351e-05
4.89841e-05
9.84241e-06
4.58099e-07
5.98204e-07
8.98756e-06
3.06049e-05
6.55747e-05
7.21763e-05
6.2859e-05
5.38226e-05
4.95342e-05
4.79918e-05
4.9006e-05
5.30134e-05
5.91173e-05
6.74751e-05
7.741e-05
8.70613e-05
9.59389e-05
0.000103444
0.00010879
0.000111703
0.000113245
0.000116729
0.000113194
0.000103427
9.56263e-05
8.61947e-05
7.45594e-05
6.15736e-05
4.89508e-05
3.86646e-05
3.24378e-05
3.23182e-05
4.23287e-05
4.89521e-05
9.80056e-06
4.48511e-07
5.94934e-07
8.97707e-06
3.17401e-05
6.4461e-05
6.95134e-05
6.56055e-05
6.05368e-05
5.63756e-05
5.43753e-05
5.33625e-05
5.37088e-05
5.61629e-05
6.08962e-05
6.71818e-05
7.5464e-05
8.45345e-05
9.27129e-05
9.87602e-05
0.000103226
0.000106952
0.000111801
0.000108679
9.88182e-05
9.11849e-05
8.26941e-05
7.22903e-05
6.06067e-05
4.89972e-05
3.93671e-05
3.36557e-05
3.42657e-05
4.51661e-05
4.92204e-05
9.84007e-06
4.41512e-07
5.41772e-07
8.64895e-06
2.89108e-05
5.88929e-05
6.9375e-05
7.04203e-05
6.82088e-05
6.55156e-05
6.28649e-05
6.01884e-05
5.78507e-05
5.6329e-05
5.62211e-05
5.81886e-05
6.23633e-05
6.84304e-05
7.5157e-05
8.24186e-05
8.90242e-05
9.45441e-05
0.000100462
9.93539e-05
9.17546e-05
8.51718e-05
7.76353e-05
6.85843e-05
5.83444e-05
4.82567e-05
3.98303e-05
3.49838e-05
3.65204e-05
4.81661e-05
4.88613e-05
9.92017e-06
4.38202e-07
4.36942e-07
8.03607e-06
2.40509e-05
5.00331e-05
6.60127e-05
7.08881e-05
7.18917e-05
7.02197e-05
6.80377e-05
6.57543e-05
6.31689e-05
6.09208e-05
5.88417e-05
5.72298e-05
5.64391e-05
5.69502e-05
5.91596e-05
6.297e-05
6.80699e-05
7.42085e-05
8.10002e-05
8.30428e-05
7.99524e-05
7.59078e-05
7.0503e-05
6.3454e-05
5.5235e-05
4.67685e-05
3.97228e-05
3.61781e-05
3.8859e-05
5.08125e-05
4.91367e-05
1.00917e-05
4.40788e-07
3.19526e-07
7.28733e-06
2.02305e-05
4.21097e-05
6.17176e-05
7.05111e-05
7.2914e-05
7.31419e-05
7.13443e-05
6.88461e-05
6.62377e-05
6.37821e-05
6.15762e-05
5.98052e-05
5.82167e-05
5.68505e-05
5.56689e-05
5.48172e-05
5.48334e-05
5.61223e-05
5.84013e-05
6.1999e-05
6.37121e-05
6.27962e-05
6.11591e-05
5.71942e-05
5.13576e-05
4.48473e-05
3.93776e-05
3.70092e-05
4.07489e-05
5.30228e-05
4.9541e-05
1.03881e-05
4.54397e-07
2.36272e-07
6.73747e-06
1.72852e-05
3.62809e-05
5.88028e-05
7.20569e-05
7.63462e-05
7.76962e-05
7.65777e-05
7.39645e-05
7.06341e-05
6.72106e-05
6.43207e-05
6.19987e-05
5.98027e-05
5.79178e-05
5.68567e-05
5.59962e-05
5.45186e-05
5.22475e-05
4.98121e-05
4.89464e-05
5.22173e-05
5.2491e-05
4.96887e-05
4.90719e-05
4.64571e-05
4.23484e-05
3.84548e-05
3.71681e-05
4.17013e-05
5.37973e-05
5.02268e-05
1.07977e-05
4.90301e-07
1.9713e-07
6.28461e-06
1.62149e-05
3.42323e-05
5.58242e-05
7.0446e-05
7.85142e-05
8.20435e-05
8.27186e-05
8.1356e-05
7.84445e-05
7.40971e-05
7.00188e-05
6.75422e-05
6.64275e-05
6.52345e-05
6.3164e-05
6.06217e-05
5.79571e-05
5.44919e-05
4.95451e-05
4.42207e-05
4.67337e-05
4.86366e-05
4.40492e-05
4.3594e-05
4.23074e-05
3.9705e-05
3.73515e-05
3.7136e-05
4.20464e-05
5.36828e-05
5.0961e-05
1.12766e-05
5.48287e-07
1.95083e-07
6.0408e-06
1.49022e-05
3.08202e-05
5.28375e-05
7.09276e-05
8.06925e-05
8.51258e-05
8.57448e-05
8.09918e-05
7.52656e-05
7.35872e-05
7.40977e-05
7.49521e-05
7.56381e-05
7.57937e-05
7.5117e-05
7.30145e-05
6.92985e-05
6.35073e-05
5.5121e-05
4.61866e-05
4.72436e-05
4.73018e-05
4.0169e-05
3.93202e-05
3.90354e-05
3.76241e-05
3.59982e-05
3.64378e-05
4.18031e-05
5.32288e-05
5.14537e-05
1.16141e-05
6.19089e-07
2.25966e-07
6.09672e-06
1.54376e-05
3.31955e-05
5.74451e-05
7.45937e-05
8.2601e-05
8.39472e-05
7.73781e-05
7.30938e-05
7.37611e-05
7.57055e-05
7.90949e-05
8.34423e-05
8.71395e-05
8.89274e-05
8.85086e-05
8.58665e-05
8.16031e-05
7.46046e-05
6.31808e-05
5.06175e-05
4.9601e-05
4.81903e-05
3.94691e-05
3.65169e-05
3.59343e-05
3.5437e-05
3.46762e-05
3.56727e-05
4.1417e-05
5.30777e-05
5.16405e-05
1.16344e-05
6.74149e-07
3.05539e-07
6.42873e-06
1.69464e-05
3.79645e-05
6.27698e-05
7.60351e-05
7.73143e-05
7.2087e-05
6.90518e-05
6.72856e-05
6.92808e-05
7.55516e-05
8.44714e-05
9.4381e-05
0.000103283
0.000109459
0.000112005
0.000110065
0.00010314
9.08613e-05
7.45456e-05
5.906e-05
5.49766e-05
4.94414e-05
3.97127e-05
3.53958e-05
3.3595e-05
3.3067e-05
3.32242e-05
3.51923e-05
4.17517e-05
5.38816e-05
5.108e-05
1.14631e-05
7.08618e-07
4.59979e-07
7.29346e-06
2.02444e-05
4.73945e-05
7.02943e-05
7.35679e-05
6.95929e-05
6.13088e-05
5.49498e-05
5.70206e-05
6.68966e-05
8.22643e-05
9.94691e-05
0.000114773
0.000126015
0.000132478
0.000134305
0.000131178
0.000122698
0.000109396
9.21584e-05
7.48474e-05
6.42822e-05
5.12901e-05
3.92812e-05
3.41649e-05
3.18301e-05
3.11422e-05
3.16611e-05
3.41791e-05
4.13884e-05
5.44834e-05
4.96844e-05
1.10254e-05
7.09307e-07
6.6283e-07
8.34933e-06
2.60599e-05
5.80644e-05
7.32808e-05
7.11236e-05
5.59328e-05
4.32182e-05
4.24749e-05
5.40554e-05
7.50651e-05
0.00010054
0.000123521
0.00013884
0.0001473
0.00015074
0.000149915
0.00014448
0.000134161
0.000120842
0.000106748
9.1771e-05
7.34224e-05
5.43604e-05
4.01833e-05
3.26077e-05
2.9737e-05
2.91494e-05
3.00585e-05
3.35252e-05
4.21367e-05
5.66109e-05
4.66334e-05
1.03725e-05
6.81671e-07
7.2244e-07
8.66051e-06
2.75697e-05
6.12705e-05
6.96801e-05
5.58222e-05
4.36347e-05
3.93479e-05
4.10843e-05
5.06295e-05
7.15678e-05
0.000101838
0.000128316
0.000144591
0.000152969
0.000155845
0.000154477
0.000149452
0.000140788
0.000129271
0.000116729
0.000104737
8.3813e-05
6.00653e-05
4.2553e-05
3.22152e-05
2.79804e-05
2.74956e-05
2.90719e-05
3.33519e-05
4.32673e-05
5.84233e-05
4.34027e-05
9.83073e-06
6.18475e-07
7.18296e-07
8.75782e-06
3.01556e-05
6.30176e-05
6.49472e-05
5.85471e-05
5.05632e-05
4.39255e-05
4.14226e-05
4.30024e-05
5.30492e-05
7.22561e-05
9.65654e-05
0.000125041
0.000146166
0.000156681
0.000159736
0.000157204
0.000150115
0.000139456
0.000128482
0.000116484
9.33141e-05
6.695e-05
4.7727e-05
3.53842e-05
2.89703e-05
2.70701e-05
2.83668e-05
3.30997e-05
4.42974e-05
5.99663e-05
4.07764e-05
9.46621e-06
5.80086e-07
6.69806e-07
8.52488e-06
2.88918e-05
5.94282e-05
6.69782e-05
6.37104e-05
5.75067e-05
5.14982e-05
4.63543e-05
4.25626e-05
4.1971e-05
4.86021e-05
6.64638e-05
9.0586e-05
0.000117882
0.000144548
0.000159895
0.000163898
0.000159511
0.000149953
0.000138622
0.000124921
0.000100503
7.31579e-05
5.25058e-05
3.86522e-05
3.06876e-05
2.77117e-05
2.88608e-05
3.45528e-05
4.73322e-05
6.14083e-05
3.8837e-05
9.21723e-06
5.58208e-07
6.13706e-07
8.25556e-06
2.64232e-05
5.53926e-05
6.57843e-05
6.51015e-05
6.2299e-05
5.88586e-05
5.44172e-05
4.89178e-05
4.34362e-05
4.01671e-05
4.13862e-05
5.23585e-05
7.57599e-05
0.000104074
0.000132094
0.000151837
0.000158567
0.000154915
0.000145144
0.000130735
0.000105684
7.7787e-05
5.61244e-05
4.13986e-05
3.2828e-05
2.93627e-05
3.03411e-05
3.64534e-05
4.9604e-05
6.2216e-05
3.71742e-05
9.06567e-06
5.43417e-07
5.27878e-07
7.81145e-06
2.40543e-05
5.08844e-05
6.48514e-05
6.7678e-05
6.63822e-05
6.43848e-05
6.11515e-05
5.67173e-05
5.09331e-05
4.42687e-05
3.85005e-05
3.5813e-05
3.87322e-05
5.46377e-05
8.29562e-05
0.00011371
0.000137821
0.000146999
0.000144018
0.000129619
0.000107108
8.27047e-05
6.12086e-05
4.51953e-05
3.53344e-05
3.10704e-05
3.17879e-05
3.80822e-05
5.11835e-05
6.25989e-05
3.70554e-05
9.0632e-06
5.44227e-07
4.70671e-07
7.64018e-06
2.25065e-05
4.70568e-05
6.35291e-05
7.00315e-05
7.07707e-05
6.91695e-05
6.64131e-05
6.28616e-05
5.83284e-05
5.24386e-05
4.5094e-05
3.75152e-05
3.22318e-05
3.17178e-05
4.00444e-05
6.50197e-05
9.93245e-05
0.000125209
0.000132421
0.000124933
0.000108325
8.77724e-05
6.75135e-05
5.07505e-05
3.9388e-05
3.3756e-05
3.36683e-05
3.98011e-05
5.28497e-05
6.32292e-05
3.68572e-05
9.17836e-06
5.60112e-07
4.68289e-07
7.52125e-06
2.21171e-05
4.72143e-05
6.49628e-05
7.23238e-05
7.54622e-05
7.52484e-05
7.36202e-05
7.10313e-05
6.72599e-05
6.20357e-05
5.49985e-05
4.61561e-05
3.68835e-05
3.00601e-05
2.84508e-05
3.48376e-05
5.60864e-05
9.16912e-05
0.000118439
0.000118893
0.000107176
9.11374e-05
7.30609e-05
5.66354e-05
4.42479e-05
3.72621e-05
3.61618e-05
4.16232e-05
5.38941e-05
6.37786e-05
3.80929e-05
9.34567e-06
5.94031e-07
4.73877e-07
7.43104e-06
2.17342e-05
4.64114e-05
6.52965e-05
7.41021e-05
7.86334e-05
8.07447e-05
8.09377e-05
7.94238e-05
7.6952e-05
7.25798e-05
6.56718e-05
5.58149e-05
4.4248e-05
3.39295e-05
2.78239e-05
2.77952e-05
3.61239e-05
5.71919e-05
8.46203e-05
9.96266e-05
9.91383e-05
8.90706e-05
7.51052e-05
6.03952e-05
4.84477e-05
4.09344e-05
3.92096e-05
4.49176e-05
5.76049e-05
6.50955e-05
3.74858e-05
9.33288e-06
5.94922e-07
4.58952e-07
7.32641e-06
2.07331e-05
4.32143e-05
6.28328e-05
7.35823e-05
7.91621e-05
8.23636e-05
8.39075e-05
8.42584e-05
8.2867e-05
7.98923e-05
7.52897e-05
6.74436e-05
5.51635e-05
4.1512e-05
3.10211e-05
2.60472e-05
2.88166e-05
3.809e-05
5.18322e-05
7.06487e-05
8.10447e-05
7.9087e-05
6.92766e-05
5.82134e-05
4.8922e-05
4.36524e-05
4.39476e-05
5.0307e-05
6.11186e-05
6.66826e-05
3.80458e-05
9.24648e-06
5.81296e-07
4.04408e-07
7.04956e-06
1.93328e-05
4.0428e-05
6.05743e-05
7.27466e-05
7.93047e-05
8.24919e-05
8.38873e-05
8.42798e-05
8.41284e-05
8.33386e-05
8.09678e-05
7.66847e-05
6.90472e-05
5.59007e-05
4.13262e-05
3.02829e-05
2.47697e-05
2.70631e-05
3.41962e-05
4.32506e-05
5.44169e-05
6.00611e-05
6.10462e-05
5.64759e-05
5.02592e-05
4.61934e-05
4.70188e-05
5.36297e-05
6.46075e-05
6.80338e-05
3.6056e-05
9.00698e-06
5.26749e-07
3.54422e-07
6.74294e-06
1.79948e-05
3.83403e-05
6.01981e-05
7.41479e-05
8.1713e-05
8.56498e-05
8.70134e-05
8.68948e-05
8.61052e-05
8.48542e-05
8.33398e-05
8.14389e-05
7.83322e-05
7.31846e-05
6.20663e-05
4.6764e-05
3.24972e-05
2.45278e-05
2.40209e-05
2.74386e-05
3.57957e-05
4.66285e-05
4.89435e-05
4.86096e-05
4.73093e-05
4.68329e-05
4.91074e-05
5.65422e-05
6.64228e-05
6.57206e-05
3.56697e-05
9.21158e-06
5.05022e-07
3.07428e-07
6.34773e-06
1.65961e-05
3.614e-05
5.96798e-05
7.54867e-05
8.37626e-05
8.75847e-05
8.88789e-05
8.87693e-05
8.80874e-05
8.7355e-05
8.62499e-05
8.46368e-05
8.20817e-05
7.89164e-05
7.42521e-05
6.55803e-05
5.41947e-05
3.92366e-05
2.84841e-05
2.20173e-05
2.16302e-05
2.95424e-05
4.03431e-05
4.45691e-05
4.47861e-05
4.54571e-05
4.9049e-05
5.63595e-05
6.51534e-05
6.65476e-05
3.7159e-05
9.49194e-06
5.15797e-07
2.55563e-07
5.94734e-06
1.60136e-05
3.55796e-05
5.89528e-05
7.42303e-05
8.22954e-05
8.62904e-05
8.81196e-05
8.89428e-05
8.94599e-05
8.98661e-05
9.01022e-05
8.90243e-05
8.6505e-05
8.17308e-05
7.57836e-05
6.84566e-05
6.03604e-05
5.23271e-05
4.1984e-05
2.99397e-05
2.35146e-05
2.23695e-05
2.62359e-05
3.37137e-05
3.6864e-05
4.04401e-05
4.64038e-05
5.4228e-05
6.43058e-05
6.70695e-05
3.87519e-05
9.85593e-06
5.50942e-07
2.4645e-07
5.68161e-06
1.49644e-05
3.40619e-05
5.84336e-05
7.43298e-05
8.25147e-05
8.70175e-05
8.9126e-05
9.06055e-05
9.17674e-05
9.26692e-05
9.31194e-05
9.26915e-05
9.03431e-05
8.56411e-05
7.88632e-05
7.26499e-05
6.70195e-05
6.22689e-05
5.5908e-05
4.64018e-05
4.21727e-05
3.63403e-05
2.41785e-05
2.13866e-05
2.68137e-05
3.4232e-05
4.15334e-05
5.291e-05
6.1161e-05
6.20859e-05
4.3217e-05
1.11988e-05
6.83453e-07
2.93885e-07
5.81564e-06
1.62156e-05
3.82378e-05
6.27912e-05
7.61909e-05
8.30416e-05
8.72239e-05
9.02431e-05
9.28946e-05
9.55935e-05
9.79537e-05
9.92478e-05
9.819e-05
9.38671e-05
8.83678e-05
8.21885e-05
7.66899e-05
7.32328e-05
7.14912e-05
6.95442e-05
6.53703e-05
5.58134e-05
5.56307e-05
4.5634e-05
2.77607e-05
2.28326e-05
2.58541e-05
3.36288e-05
4.21642e-05
5.19598e-05
5.93399e-05
4.47735e-05
1.13983e-05
8.63838e-07
3.68713e-07
6.30369e-06
1.79573e-05
4.15602e-05
6.48332e-05
7.68231e-05
8.27214e-05
8.61413e-05
8.97727e-05
9.41449e-05
9.85629e-05
0.000102307
0.000104125
0.000102758
9.69798e-05
8.60204e-05
7.65694e-05
7.20318e-05
7.15343e-05
7.4145e-05
7.92211e-05
8.16325e-05
8.96819e-05
8.93267e-05
6.3704e-05
4.14522e-05
2.71202e-05
2.39803e-05
2.82127e-05
3.81769e-05
5.33995e-05
6.17349e-05
4.75215e-05
1.19941e-05
1.00187e-06
5.01804e-07
7.04074e-06
2.12756e-05
5.02491e-05
7.02341e-05
7.82948e-05
8.36916e-05
8.86347e-05
9.36384e-05
9.90632e-05
0.000103922
0.000106869
0.000106108
9.77129e-05
7.94561e-05
6.15647e-05
5.65634e-05
6.24432e-05
7.29892e-05
8.54886e-05
9.78371e-05
0.000114855
0.000126002
0.000113005
8.71788e-05
5.63969e-05
3.54747e-05
2.5315e-05
2.55707e-05
3.37814e-05
4.50207e-05
5.89828e-05
4.90009e-05
1.13128e-05
1.02176e-06
6.18181e-07
7.78787e-06
2.44821e-05
5.39706e-05
7.18901e-05
8.02139e-05
8.4088e-05
8.60435e-05
8.89194e-05
9.27526e-05
9.59467e-05
9.62187e-05
9.01146e-05
7.51614e-05
5.83715e-05
4.95645e-05
4.98174e-05
6.11255e-05
8.64292e-05
0.000115656
0.000133545
0.000138305
0.000134663
0.000125225
0.000105206
7.46977e-05
4.47055e-05
2.89306e-05
2.48759e-05
2.96004e-05
4.60726e-05
6.78113e-05
4.29025e-05
1.08953e-05
1.01273e-06
6.85092e-07
8.14956e-06
2.62699e-05
5.75635e-05
7.31694e-05
7.5632e-05
7.53611e-05
7.70165e-05
8.1263e-05
8.74792e-05
9.34539e-05
9.65676e-05
9.4119e-05
8.35352e-05
6.54015e-05
4.92616e-05
4.37877e-05
5.10204e-05
6.943e-05
9.19441e-05
0.000108251
0.000115757
0.000115862
0.000106691
8.74394e-05
6.36505e-05
4.39493e-05
3.24381e-05
3.13846e-05
4.295e-05
6.30649e-05
7.04752e-05
4.04196e-05
9.96864e-06
8.69408e-07
7.06393e-07
8.36789e-06
2.72665e-05
5.81968e-05
7.08812e-05
7.47051e-05
7.5932e-05
7.74061e-05
8.12681e-05
8.78811e-05
9.54085e-05
0.000100393
9.94534e-05
8.88052e-05
6.78337e-05
4.72372e-05
3.87355e-05
4.31519e-05
6.10292e-05
8.13412e-05
8.81573e-05
9.1549e-05
8.81094e-05
8.07047e-05
6.96818e-05
5.73509e-05
4.76891e-05
4.35672e-05
4.65905e-05
5.40641e-05
6.54752e-05
6.52207e-05
2.97489e-05
8.53687e-06
6.26893e-07
7.00595e-07
8.35955e-06
2.69062e-05
5.69013e-05
7.02864e-05
7.2357e-05
7.09113e-05
7.04133e-05
7.322e-05
7.98184e-05
8.89547e-05
9.78473e-05
0.000102254
9.8009e-05
8.18602e-05
5.76871e-05
3.8674e-05
3.36929e-05
4.59889e-05
5.66941e-05
5.97813e-05
7.02183e-05
7.24307e-05
6.77137e-05
6.06626e-05
5.47056e-05
5.14598e-05
5.18264e-05
5.62884e-05
6.82682e-05
7.27339e-05
5.9093e-05
2.50017e-05
7.57435e-06
4.43986e-07
6.19e-07
8.06475e-06
2.5851e-05
5.52215e-05
6.88969e-05
7.21873e-05
7.178e-05
7.07985e-05
7.12804e-05
7.52024e-05
8.36229e-05
9.50071e-05
0.000101938
0.0001005
9.05905e-05
7.15955e-05
5.16547e-05
3.62903e-05
3.38091e-05
3.43318e-05
3.74003e-05
4.83088e-05
5.42188e-05
5.55892e-05
5.47243e-05
5.36342e-05
5.43008e-05
5.95731e-05
7.04823e-05
7.9401e-05
7.59485e-05
5.66032e-05
2.38971e-05
7.38312e-06
3.74187e-07
5.58578e-07
7.65184e-06
2.38053e-05
5.24065e-05
6.77074e-05
7.12811e-05
7.02641e-05
6.87282e-05
6.86284e-05
6.95669e-05
7.2012e-05
7.76121e-05
8.86159e-05
0.000101692
0.000107847
0.000101998
8.05454e-05
5.55711e-05
3.51278e-05
2.98502e-05
2.94598e-05
3.29186e-05
4.29209e-05
4.75426e-05
4.8798e-05
5.03591e-05
5.49669e-05
6.45137e-05
7.60638e-05
8.14585e-05
7.7879e-05
5.94826e-05
2.61373e-05
7.78754e-06
3.79366e-07
4.74389e-07
7.25148e-06
2.17933e-05
4.84179e-05
6.58928e-05
7.19205e-05
7.27719e-05
7.08636e-05
6.87456e-05
6.87212e-05
7.10271e-05
7.54525e-05
8.35456e-05
9.5154e-05
0.000104321
0.000106732
0.000100908
8.30454e-05
6.1117e-05
4.16728e-05
2.78168e-05
2.42421e-05
2.87142e-05
3.71271e-05
4.48505e-05
5.06518e-05
5.70271e-05
6.38479e-05
7.17613e-05
7.90147e-05
7.85341e-05
6.03069e-05
2.70606e-05
8.25471e-06
4.35746e-07
4.25365e-07
6.8592e-06
2.01582e-05
4.56778e-05
6.45306e-05
7.07755e-05
7.15328e-05
7.02946e-05
6.91057e-05
6.84641e-05
6.8872e-05
7.12601e-05
7.6067e-05
8.36863e-05
9.59026e-05
0.000109202
0.000115678
0.000111157
9.26488e-05
6.73274e-05
4.31225e-05
3.04359e-05
2.58282e-05
2.67085e-05
3.36211e-05
4.26883e-05
5.05788e-05
5.82654e-05
6.75333e-05
7.55524e-05
7.6666e-05
6.43535e-05
3.14785e-05
9.03526e-06
5.42877e-07
3.8448e-07
6.61077e-06
1.88495e-05
4.21034e-05
6.20679e-05
7.06153e-05
7.29375e-05
7.24877e-05
7.09913e-05
6.95664e-05
6.88495e-05
6.94188e-05
7.24186e-05
7.8928e-05
8.92527e-05
0.000102267
0.000114729
0.000121848
0.000118932
0.000101573
7.2981e-05
4.73805e-05
3.06759e-05
2.45369e-05
2.59823e-05
3.27214e-05
4.2899e-05
5.27487e-05
6.09737e-05
6.93605e-05
7.28129e-05
6.53137e-05
3.39994e-05
9.53494e-06
6.19823e-07
3.65098e-07
6.50773e-06
1.83376e-05
4.12833e-05
6.16231e-05
7.01524e-05
7.2351e-05
7.16817e-05
7.06838e-05
7.00128e-05
6.9669e-05
6.94281e-05
7.01013e-05
7.31428e-05
8.02891e-05
9.20133e-05
0.000106502
0.000119563
0.000126624
0.000124459
0.000109479
7.9847e-05
4.75143e-05
2.88751e-05
2.35861e-05
2.56722e-05
3.33176e-05
4.50324e-05
5.56306e-05
6.35115e-05
6.90503e-05
6.4008e-05
3.4533e-05
9.714e-06
6.43515e-07
3.51085e-07
6.41252e-06
1.81536e-05
4.08424e-05
6.11774e-05
6.97721e-05
7.16961e-05
7.0649e-05
6.95755e-05
6.91347e-05
6.90343e-05
6.8763e-05
6.86713e-05
7.0017e-05
7.45957e-05
8.38299e-05
9.75568e-05
0.000113353
0.000127568
0.00013825
0.000139265
0.000125448
8.86394e-05
5.00865e-05
2.93206e-05
2.39848e-05
2.62439e-05
3.36767e-05
4.54813e-05
5.73492e-05
6.44755e-05
6.28453e-05
3.65843e-05
9.97886e-06
7.06539e-07
3.49107e-07
6.34159e-06
1.79339e-05
4.0962e-05
6.12713e-05
6.88179e-05
6.95112e-05
6.75855e-05
6.68238e-05
6.71488e-05
6.777e-05
6.79738e-05
6.77241e-05
6.79888e-05
7.07329e-05
7.8039e-05
9.08772e-05
0.000108341
0.000127986
0.000146544
0.000163534
0.000163482
0.000135895
9.38826e-05
5.50392e-05
3.18105e-05
2.49537e-05
2.72919e-05
3.48965e-05
4.64882e-05
5.81941e-05
6.26255e-05
4.01541e-05
1.04237e-05
8.08094e-07