/*--------------------------------*- C++ -*----------------------------------*\
| =========                 |                                                 |
| \\      /  F ield         | OpenFOAM: The Open Source CFD Toolbox           |
|  \\    /   O peration     | Version:  2.0.x                                 |
|   \\  /    A nd           | Web:      www.OpenFOAM.org                      |
|    \\/     M anipulation  |                                                 |
\*---------------------------------------------------------------------------*/
FoamFile
{
    version     2.0;
    format      ascii;
    class       volScalarField;
    location    "550";
    object      k;
}
// * * * * * * * * * * * * * * * * * * * * * * * * * * * * * * * * * * * * * //

dimensions      [0 2 -2 0 0 0 0];

internalField   nonuniform List<scalar> 
78750
(
0.000121212
0.000472352
0.000568132
0.000597063
0.000619196
0.00065042
0.000682287
0.000707249
0.000729419
0.000748708
0.000765331
0.000779503
0.00079149
0.000801341
0.000809233
0.000815299
0.000819758
0.000822418
0.00082411
0.000823871
0.00082292
0.000822455
0.000820849
0.000818903
0.000814646
0.000808053
0.000799466
0.000789347
0.000776768
0.00076313
0.000748006
0.000730332
0.000708248
0.000626896
0.00015394
0.000104808
0.000311799
0.00038722
0.000429604
0.000514749
0.00061015
0.000687926
0.000755341
0.000813026
0.000861351
0.00090144
0.000934048
0.000960033
0.0009801
0.000994781
0.00100452
0.00100998
0.00101045
0.00100875
0.00100309
0.000993305
0.000978717
0.00095987
0.000937779
0.000915237
0.000893169
0.00087164
0.000849879
0.000826508
0.000801742
0.000776057
0.00074624
0.000705248
0.000606809
0.000322777
2.78969e-05
0.000138273
0.000240286
0.000369313
0.00050849
0.000647812
0.000761255
0.000846277
0.000909942
0.00095839
0.000995408
0.00102316
0.00104312
0.0010563
0.00106336
0.00106459
0.00106236
0.00105481
0.00104275
0.00102662
0.00100833
0.00098898
0.000965473
0.000938194
0.000908308
0.000876906
0.000845451
0.0008124
0.000779691
0.000751851
0.000729326
0.000708518
0.000663756
0.000569928
0.000381481
2.39586e-05
0.000219991
0.000429767
0.000632554
0.000793745
0.000893801
0.000960992
0.00100984
0.00104697
0.00107598
0.00109861
0.0011157
0.00112762
0.00113452
0.00113631
0.00113447
0.00112702
0.00111478
0.00109792
0.00107644
0.00104916
0.00101598
0.00098116
0.00094509
0.000908203
0.000869404
0.000830703
0.000790844
0.00075157
0.000716563
0.000686679
0.000660471
0.000618148
0.000542694
0.000408477
3.35489e-05
0.000289321
0.000523114
0.00069947
0.00082116
0.000909113
0.000975689
0.00102912
0.00107309
0.00110895
0.00113726
0.0011582
0.00117191
0.00117837
0.00117803
0.00117201
0.0011588
0.00113967
0.00111522
0.00108598
0.00105238
0.00101579
0.000977278
0.000936441
0.000891488
0.00084563
0.000801303
0.000756447
0.00071235
0.000673866
0.000641882
0.000616023
0.000578386
0.000516674
0.00040811
6.78835e-05
0.000362535
0.000619166
0.000805809
0.000928414
0.0010108
0.00107297
0.00112208
0.00116086
0.00119083
0.0012128
0.00122719
0.00123429
0.00123434
0.00122954
0.00121724
0.00119897
0.00117506
0.00114594
0.00111207
0.00107368
0.00103145
0.000986074
0.000938214
0.000888633
0.000838642
0.000789212
0.000738542
0.000687985
0.000643447
0.000605653
0.000576214
0.000542382
0.000491131
0.000398762
9.72614e-05
0.000407848
0.000657271
0.000827234
0.000939123
0.00101971
0.00108255
0.00113417
0.00117694
0.00121168
0.00123858
0.00125744
0.0012681
0.00127073
0.00126664
0.00125436
0.00123502
0.00120896
0.00117657
0.00113863
0.00109623
0.00105043
0.00100154
0.000949879
0.000895973
0.00084165
0.000789061
0.000737391
0.000684108
0.000632379
0.000587153
0.000551121
0.000514785
0.000467323
0.000381552
0.0001288
0.000448897
0.000699864
0.000871384
0.000987634
0.00107215
0.00113844
0.00119192
0.00123521
0.00126961
0.00129552
0.0013131
0.00132235
0.00132318
0.00131675
0.0013016
0.00127945
0.00125069
0.00121576
0.00117516
0.00112964
0.0010803
0.00102762
0.000972248
0.000914996
0.000857121
0.000800028
0.00074294
0.00068307
0.000623912
0.000571585
0.000529832
0.000491819
0.000445544
0.000361301
0.000141484
0.000459719
0.000704915
0.000875809
0.000992553
0.00107727
0.00114447
0.00120034
0.0012475
0.0012866
0.00131771
0.00134073
0.00135548
0.00136173
0.00135955
0.00134861
0.00132906
0.00130155
0.00126721
0.00122655
0.0011804
0.00112992
0.00107578
0.00101849
0.000958582
0.000897088
0.000835092
0.000771285
0.00070256
0.000632538
0.000569829
0.000516372
0.000472014
0.000423847
0.000339671
0.000151513
0.000471891
0.000723941
0.000902617
0.00102413
0.00111217
0.00118208
0.00123999
0.00128854
0.00132855
0.0013604
0.00138432
0.00140034
0.00140839
0.00140827
0.00140034
0.00138342
0.00135769
0.00132343
0.00128225
0.00123548
0.00118411
0.00112878
0.00106995
0.00100814
0.000944008
0.000877376
0.000805624
0.000728531
0.000651998
0.000578093
0.000514579
0.000460294
0.000408954
0.00032901
0.000153133
0.000473505
0.000725959
0.000905685
0.00103057
0.00112167
0.00119435
0.0012551
0.00130666
0.00134994
0.00138541
0.00141325
0.00143353
0.00144607
0.00145057
0.00144735
0.00143508
0.00141364
0.00138286
0.00134298
0.00129613
0.00124402
0.00118755
0.00112708
0.00106301
0.000995979
0.000925987
0.000850379
0.000768853
0.000685934
0.000600724
0.000519683
0.000457222
0.000401876
0.000328807
0.000156682
0.000486288
0.000750403
0.000937814
0.00106546
0.00115766
0.00123107
0.00129248
0.00134448
0.00138801
0.00142369
0.0014519
0.00147293
0.00148685
0.00149347
0.00149266
0.00148373
0.00146577
0.00143793
0.00140034
0.00135363
0.00129989
0.0012416
0.00117863
0.00111148
0.00104103
0.000967336
0.000888095
0.000804574
0.000719204
0.000627032
0.000534533
0.000459768
0.00040236
0.000336455
0.000163099
0.000498063
0.000766952
0.000956898
0.00108588
0.00117973
0.00125486
0.00131812
0.00137169
0.0014166
0.00145348
0.00148274
0.0015047
0.00151944
0.00152679
0.00152642
0.00151936
0.00150409
0.00148071
0.00144837
0.00140644
0.0013551
0.00129477
0.00122756
0.0011558
0.00108065
0.00100232
0.000918584
0.000831761
0.000744152
0.000649222
0.000550985
0.000469464
0.000408708
0.000353607
0.00017435
0.000523905
0.000804126
0.000997381
0.00112524
0.00121815
0.00129276
0.00135578
0.00140903
0.00145352
0.00148988
0.00151856
0.00153996
0.00155432
0.0015617
0.00156233
0.00155768
0.00154513
0.00152457
0.00149512
0.00145637
0.00140857
0.00135101
0.00128319
0.00120568
0.00112131
0.0010333
0.000940802
0.000849052
0.000759178
0.000663687
0.000564644
0.000481914
0.000420713
0.000369483
0.000188908
0.00054751
0.000831892
0.00102459
0.00115132
0.00124428
0.00131962
0.00138325
0.00143699
0.00148189
0.00151859
0.0015475
0.0015689
0.00158311
0.00159039
0.0015907
0.00158521
0.00157169
0.00155074
0.0015219
0.00148509
0.0014403
0.00138663
0.00132324
0.00124928
0.00116366
0.00106583
0.000964306
0.00086809
0.000771758
0.000671984
0.000573318
0.000493032
0.000432509
0.000378847
0.000202914
0.000575547
0.000867412
0.00105953
0.00118453
0.00127604
0.00135051
0.00141337
0.00146656
0.00151116
0.00154782
0.0015768
0.00159834
0.00161256
0.00161945
0.00161908
0.00161207
0.0015977
0.00157642
0.00154799
0.00151258
0.00146962
0.00141832
0.00135775
0.00128706
0.00120486
0.0011092
0.00100384
0.000894466
0.00078404
0.000677098
0.000578724
0.000502301
0.000441595
0.000379287
0.000216943
0.000599379
0.000894781
0.00108537
0.00120893
0.00129964
0.00137379
0.00143626
0.00148918
0.00153386
0.00157085
0.00160025
0.00162215
0.00163645
0.00164302
0.00164216
0.0016339
0.00161878
0.0015971
0.001569
0.00153469
0.00149335
0.0014443
0.00138639
0.0013185
0.00123959
0.00114805
0.00104535
0.000931135
0.000803371
0.000681728
0.000581124
0.000508148
0.000447396
0.000377734
0.000228317
0.000623012
0.000923833
0.00111378
0.00123562
0.00132485
0.00139758
0.00145883
0.00151102
0.00155549
0.00159286
0.0016233
0.00164661
0.00166228
0.00166989
0.00166946
0.00166168
0.00164642
0.00162463
0.00159694
0.00156311
0.00152293
0.00147627
0.00142222
0.00135968
0.00128737
0.00120476
0.00110941
0.000992781
0.000851623
0.000705268
0.000590206
0.00051498
0.000453155
0.000379143
0.000238769
0.000643979
0.000948334
0.00113745
0.00125769
0.00134565
0.00141697
0.00147695
0.00152828
0.00157259
0.00161068
0.00164261
0.00166797
0.0016859
0.00169559
0.00169665
0.00169023
0.0016754
0.0016536
0.00162578
0.00159149
0.00155122
0.00150547
0.00145378
0.00139533
0.00132887
0.00125317
0.0011638
0.00105038
0.000906761
0.000746676
0.000609839
0.000525927
0.000460362
0.000382116
0.000248196
0.000665833
0.000975141
0.0011635
0.0012815
0.00136736
0.00143664
0.00149486
0.00154497
0.00158894
0.00162782
0.00166171
0.00168999
0.00171141
0.00172474
0.00172921
0.00172519
0.00171239
0.00169192
0.00166416
0.00162904
0.00158754
0.00154085
0.00148936
0.00143268
0.00137029
0.00129923
0.00121174
0.00109869
0.000954891
0.000788768
0.000638074
0.000542402
0.000470467
0.000387596
0.000260982
0.000689414
0.00100148
0.00118795
0.00130336
0.00138692
0.00145393
0.00151023
0.00155904
0.00160247
0.00164183
0.00167747
0.00170862
0.00173368
0.001751
0.0017595
0.00175887
0.00174936
0.00173139
0.00170476
0.00166963
0.00162723
0.00157932
0.00152698
0.00147045
0.00140951
0.00134045
0.00125468
0.00114283
0.000999052
0.000829483
0.000669974
0.000564688
0.000484676
0.000395789
0.000275544
0.000715355
0.00102887
0.00121223
0.00132412
0.0014046
0.00146883
0.00152287
0.00157018
0.00161315
0.00165338
0.00169123
0.00172564
0.00175459
0.00177611
0.00178887
0.00179234
0.00178699
0.00177195
0.00174699
0.00171224
0.00166891
0.00161922
0.00156521
0.00150867
0.0014483
0.00137821
0.00129109
0.00117931
0.00103596
0.000865839
0.000701566
0.000589669
0.000501953
0.000404597
0.000286838
0.000736329
0.00105075
0.00123139
0.0013401
0.00141735
0.00147861
0.00153019
0.00157601
0.00161911
0.00166087
0.00170131
0.0017389
0.00177136
0.00179663
0.00181343
0.00182118
0.00181986
0.00180854
0.00178661
0.00175404
0.00171184
0.00166226
0.00160765
0.00155002
0.00148801
0.0014158
0.00132658
0.0012132
0.00106916
0.000898974
0.000732235
0.000615951
0.000521225
0.000412889
0.000288391
0.000749948
0.00106868
0.00124807
0.00135388
0.00142771
0.0014856
0.00153451
0.00157916
0.00162267
0.00166682
0.00171094
0.00175235
0.0017883
0.00181678
0.00183676
0.00184793
0.0018499
0.00184202
0.00182301
0.001793
0.00175273
0.0017044
0.00165095
0.0015938
0.00153016
0.00145491
0.00136255
0.00124627
0.00110045
0.000930133
0.000762185
0.000642679
0.000541543
0.000421445
0.000289653
0.000765459
0.00108968
0.00126745
0.00136998
0.00143993
0.00149362
0.00153869
0.00158128
0.00162608
0.00167495
0.0017259
0.00177359
0.00181413
0.0018456
0.00186758
0.0018805
0.0018839
0.00187761
0.00186066
0.00183315
0.00179567
0.00174997
0.00169837
0.00164141
0.00157602
0.0014979
0.00140219
0.00128245
0.0011338
0.000962208
0.000792861
0.000670262
0.000563224
0.000432892
0.000302263
0.000793475
0.00112158
0.00129504
0.00139247
0.00145714
0.00150504
0.00154421
0.00158202
0.00162739
0.00168437
0.00174707
0.00180495
0.00185277
0.00188868
0.0019125
0.00192525
0.0019274
0.00191979
0.00190197
0.00187429
0.00183739
0.00179288
0.00174251
0.00168592
0.00161969
0.00153963
0.00144101
0.00131793
0.00116674
0.000993407
0.00082353
0.000698332
0.000585315
0.00044379
0.000338877
0.000840386
0.00116292
0.00132731
0.00141843
0.00147737
0.00151872
0.00155035
0.00158175
0.00162623
0.00168672
0.00175705
0.00182804
0.00188832
0.00193285
0.00196206
0.00197627
0.00197699
0.00196728
0.00194722
0.00191737
0.00187884
0.00183341
0.00178181
0.00172279
0.00165377
0.0015711
0.00146982
0.00134445
0.00119238
0.00101939
0.000851519
0.000724496
0.0006047
0.0004467
0.000402855
0.00090199
0.00120576
0.0013571
0.00144273
0.00149831
0.00153238
0.00155166
0.00156998
0.00161114
0.00167612
0.00175391
0.00182848
0.00189275
0.00194367
0.00198095
0.00200474
0.002015
0.00201047
0.00199256
0.00196263
0.00192342
0.00187647
0.00182188
0.00175858
0.0016846
0.00159664
0.00149047
0.00136177
0.00120949
0.00103905
0.000875844
0.000748002
0.000621169
0.00044523
0.000479064
0.00094148
0.00122341
0.00136978
0.00145773
0.00151555
0.00154813
0.00155723
0.00155993
0.00157765
0.00162458
0.00169853
0.00177759
0.00185371
0.0019188
0.00196894
0.00200274
0.00202087
0.00202416
0.00201421
0.00199221
0.00195859
0.00191435
0.0018593
0.00179311
0.00171477
0.00162152
0.00150994
0.00137722
0.00122379
0.00105566
0.000896793
0.000768232
0.000633908
0.00043693
0.000505175
0.000945171
0.00122411
0.00137087
0.00146323
0.00153208
0.00157136
0.00158013
0.00157338
0.00156892
0.00158054
0.00160244
0.00165452
0.00173106
0.00180558
0.00187458
0.00193164
0.00197256
0.00199639
0.0020028
0.00199398
0.00197106
0.00193461
0.0018847
0.00182099
0.00174229
0.00164646
0.00153118
0.0013951
0.00123952
0.0010719
0.000915624
0.000786016
0.000644845
0.000427783
0.000502411
0.000921929
0.00120487
0.00136098
0.00146282
0.00153969
0.00159853
0.00162466
0.00162631
0.00160799
0.00158468
0.00157559
0.001583
0.00159808
0.00164193
0.00170561
0.00177876
0.00184073
0.0018905
0.00192473
0.00193968
0.00193772
0.00191861
0.00188142
0.00182818
0.0017576
0.00166735
0.00155368
0.00141647
0.00125889
0.00109065
0.000935631
0.000804263
0.000656264
0.000421085
0.000457302
0.000861382
0.00115929
0.00133402
0.00144977
0.00153787
0.00160601
0.0016616
0.00169517
0.00170025
0.0016834
0.00164845
0.00160758
0.00157793
0.00156645
0.00157632
0.00159719
0.00164352
0.00170348
0.00176492
0.00181133
0.00184064
0.00185138
0.00184237
0.00180924
0.00175129
0.00166754
0.00156224
0.00143207
0.00127678
0.00110937
0.000955546
0.00082189
0.000666903
0.000417914
0.000368432
0.000779661
0.00109454
0.00128976
0.00141835
0.001517
0.00159794
0.00166471
0.0017224
0.00177133
0.00179287
0.00179628
0.00177054
0.00172132
0.00165833
0.00159631
0.00155061
0.00152681
0.00152807
0.00155217
0.00159915
0.00165359
0.00170126
0.00173075
0.00173479
0.00170875
0.00165146
0.00155912
0.00143538
0.00128791
0.00112533
0.000974591
0.000840247
0.000680184
0.000420385
0.000269104
0.000688026
0.00101506
0.00123352
0.00137768
0.00148506
0.00157481
0.00165321
0.00172319
0.00178676
0.00184291
0.00188633
0.00190781
0.00190872
0.00187856
0.00181915
0.00173772
0.00164573
0.00155738
0.001489
0.00144817
0.00144286
0.00147683
0.00153376
0.00158638
0.00161152
0.00159645
0.00153511
0.00143264
0.00129539
0.00114102
0.000994631
0.000860469
0.00069616
0.000433389
0.000198828
0.000620716
0.000954208
0.00119407
0.00135642
0.00147331
0.00156631
0.00164685
0.00172057
0.00179136
0.00186059
0.00192555
0.00198077
0.00201818
0.00203185
0.00201824
0.00197587
0.00190564
0.00181199
0.00170142
0.00158539
0.00148279
0.00141844
0.00139701
0.00140959
0.0014466
0.00147769
0.00147116
0.00140874
0.00129449
0.0011537
0.00101407
0.000883156
0.000720294
0.000467706
0.000165823
0.000592078
0.000939002
0.00118793
0.00135475
0.00147303
0.0015668
0.00164931
0.00172935
0.00181216
0.00189868
0.00198504
0.00206386
0.00212548
0.00216116
0.00216599
0.00214645
0.00209622
0.00202154
0.00192498
0.00180797
0.00167325
0.00154023
0.00144252
0.0013897
0.00137142
0.00137688
0.00137965
0.00135706
0.00128106
0.00116099
0.00103361
0.000908902
0.00075172
0.000523162
0.00016409
0.000592521
0.000950353
0.00121598
0.00139524
0.0015159
0.00160785
0.00168871
0.00177049
0.00186246
0.00196889
0.00208398
0.00219353
0.00228203
0.00233798
0.00235463
0.00233858
0.00228664
0.00220668
0.00210329
0.00197816
0.00183098
0.00167698
0.00154303
0.00143358
0.00137107
0.00133913
0.00132826
0.00130994
0.00125581
0.00116048
0.00104839
0.000934215
0.000788094
0.000590951
0.000190104
0.000664838
0.00105827
0.00131363
0.00147067
0.00157517
0.0016585
0.00173575
0.00182578
0.0019427
0.00208721
0.00224252
0.00238723
0.00250198
0.00257386
0.00259646
0.00257804
0.002517
0.0024253
0.00230603
0.0021607
0.00198937
0.00181047
0.00165202
0.00151314
0.00140196
0.00134007
0.00130751
0.00128199
0.00123598
0.0011565
0.00105834
0.000955245
0.00082168
0.000643759
0.000257219
0.000775398
0.00117029
0.00139374
0.00152183
0.00160999
0.00168542
0.00177073
0.0018925
0.0020569
0.00226003
0.0024642
0.00263787
0.00276495
0.00284093
0.00286673
0.00284936
0.00278642
0.00268186
0.00253607
0.002349
0.00212737
0.00191169
0.00172782
0.0015705
0.00144133
0.00135074
0.00129904
0.00126575
0.00122224
0.0011532
0.00106683
0.000973225
0.000849305
0.000676892
0.000387742
0.000930896
0.0012877
0.00146529
0.00156294
0.00162602
0.00169097
0.00177919
0.00192444
0.00216115
0.00242076
0.00264408
0.00281076
0.00292321
0.00298709
0.00300434
0.00298324
0.00292446
0.00282792
0.00269086
0.00250961
0.00228468
0.0020356
0.00180074
0.00160961
0.00146459
0.00136173
0.00129802
0.00125677
0.0012119
0.00114863
0.00107216
0.000988246
0.000871315
0.000677645
0.000559734
0.00103608
0.0013291
0.00147966
0.00156599
0.00162603
0.0016733
0.00175208
0.00191609
0.00216891
0.00243346
0.00265412
0.00282173
0.00294289
0.00302351
0.00306481
0.0030655
0.00302035
0.00292827
0.00279551
0.00262353
0.0024164
0.00217976
0.00192281
0.00167158
0.00147598
0.00136143
0.00129582
0.00124988
0.00120405
0.00114587
0.00107632
0.000995531
0.000870537
0.000651286
0.000610532
0.00104538
0.00133246
0.00148076
0.00156598
0.00162055
0.00165254
0.00167161
0.00174851
0.00195391
0.00223241
0.0024914
0.0027047
0.00287126
0.0029911
0.00306353
0.00308841
0.00307172
0.00301421
0.00290769
0.00275285
0.00256157
0.00233622
0.00207312
0.00178967
0.00153603
0.00136966
0.00129123
0.00124303
0.00119956
0.00114526
0.00108069
0.00100013
0.000865816
0.000590808
0.000607033
0.00102912
0.00131214
0.0014629
0.00155697
0.00162023
0.00165312
0.00166239
0.00166803
0.00168501
0.00181748
0.00207844
0.002351
0.00259255
0.00278485
0.00292638
0.00301627
0.00305102
0.00303417
0.00296861
0.00285922
0.00270524
0.00250755
0.00225859
0.00196692
0.00167716
0.00144904
0.00131379
0.00124941
0.00120289
0.00114881
0.00108549
0.00100213
0.000853937
0.000554046
0.000565844
0.00097526
0.00127046
0.00143846
0.00154615
0.0016223
0.00167203
0.00168451
0.00167672
0.00166984
0.00168036
0.00175413
0.00196587
0.00223009
0.00247871
0.00268146
0.00283006
0.00292474
0.00296383
0.0029497
0.00288276
0.00276759
0.00260331
0.00238159
0.00210545
0.001808
0.0015486
0.00137537
0.00127989
0.00121831
0.00115868
0.00109209
0.00100326
0.000843115
0.000533131
0.000518161
0.000929326
0.00123287
0.00141125
0.0015288
0.00161698
0.00167928
0.00172046
0.00172811
0.00171024
0.00168006
0.00166505
0.00167982
0.00181627
0.002078
0.00233436
0.00255023
0.00270827
0.00280785
0.00284954
0.00283554
0.00276615
0.00264018
0.00245108
0.00219872
0.00191018
0.00164115
0.00144383
0.00132244
0.00124278
0.00117302
0.00109998
0.00100361
0.00083127
0.000519001
0.000445335
0.000861023
0.00117224
0.00136562
0.00149647
0.00159764
0.00167689
0.00173411
0.00176794
0.00177475
0.00175504
0.00171178
0.00166578
0.00164228
0.00165684
0.00185574
0.00213245
0.00237059
0.00254511
0.0026564
0.00270728
0.00269775
0.00262472
0.00248206
0.00226884
0.00200139
0.00172997
0.00151295
0.00136868
0.00127174
0.00119131
0.00111139
0.0010084
0.000830147
0.000519793
0.000396818
0.000819854
0.00113219
0.0013329
0.00147089
0.00157825
0.00166618
0.00173542
0.00178571
0.00181495
0.00182085
0.0018019
0.00175352
0.0016855
0.00163249
0.00162377
0.00170295
0.00195748
0.00219804
0.00237872
0.00249792
0.0025569
0.00255147
0.00247377
0.00231961
0.00209466
0.00183584
0.00160166
0.00142886
0.00130844
0.00121346
0.00112487
0.00101541
0.000831729
0.000535
0.000394794
0.000805168
0.00111303
0.00131733
0.00145997
0.00157251
0.00166557
0.00174056
0.00179645
0.00183478
0.00185166
0.00185071
0.00182788
0.00177858
0.00170295
0.001626
0.00160176
0.00166315
0.00187725
0.002101
0.00226852
0.00238098
0.00243585
0.00242188
0.00232658
0.00216149
0.00193674
0.00170144
0.00150638
0.0013617
0.00124898
0.00114905
0.00103308
0.000849622
0.000567523
0.000399516
0.000787287
0.00109563
0.00130618
0.00145378
0.0015699
0.0016666
0.00174724
0.00181504
0.00186321
0.00189182
0.00189747
0.00188221
0.00184338
0.00177884
0.00169256
0.00161477
0.0016035
0.00168233
0.0018603
0.00205405
0.00220411
0.00230088
0.00233586
0.00229851
0.00217525
0.00199862
0.00178626
0.00157957
0.00141343
0.00128389
0.00117251
0.00104771
0.000859481
0.000568406
0.000386885
0.000752901
0.00106015
0.00127865
0.00143376
0.00155552
0.00165805
0.00174557
0.0018189
0.00188025
0.00192487
0.00194921
0.00195246
0.00193224
0.00188352
0.00180247
0.00169734
0.00160955
0.00159753
0.00166867
0.00181403
0.00197975
0.0021144
0.00219416
0.00220474
0.00214046
0.00199757
0.00181535
0.00163162
0.00146374
0.00132394
0.00120157
0.00106626
0.000863822
0.000555369
0.000340756
0.000705607
0.00101832
0.0012467
0.00140881
0.00153487
0.00164116
0.00173374
0.00181528
0.00188507
0.00194191
0.00198403
0.00200851
0.00201295
0.00199496
0.00194616
0.00185778
0.00173504
0.00162031
0.00158739
0.00163748
0.00175702
0.00188775
0.00199892
0.00205976
0.00205348
0.00196592
0.00180854
0.00163622
0.00148146
0.00134295
0.00121709
0.00107284
0.000854629
0.000503204
0.000298521
0.000664788
0.000979759
0.00121966
0.00139016
0.00151995
0.00162962
0.0017268
0.00181269
0.00188825
0.00195464
0.00200953
0.00205068
0.00207697
0.00208565
0.0020763
0.00203882
0.0019589
0.00182785
0.00167544
0.00159357
0.00159548
0.0016859
0.00178804
0.00185672
0.00187625
0.00183751
0.00174814
0.0016206
0.00148217
0.0013549
0.00122892
0.00108033
0.000854868
0.000482379
0.000258853
0.000628145
0.000951281
0.0012034
0.00138275
0.00151769
0.00162853
0.00172641
0.00181563
0.00189805
0.00197268
0.00203756
0.00209017
0.00213001
0.00215745
0.00217126
0.00217158
0.00214912
0.00208801
0.00196894
0.00179562
0.00163417
0.00157511
0.00162227
0.00170348
0.00175606
0.00175278
0.00169394
0.00159609
0.0014811
0.00136266
0.00124348
0.00109943
0.000869522
0.000492671
0.00021509
0.000613078
0.000948254
0.00120186
0.00138206
0.00151836
0.00163394
0.00173715
0.00183158
0.00191905
0.0020008
0.00207574
0.00214044
0.00219256
0.00223247
0.00226264
0.00228346
0.0022928
0.00228205
0.00223254
0.00212251
0.0019324
0.00170643
0.00159125
0.00158128
0.00160923
0.00164529
0.00163617
0.00157075
0.00147333
0.00136463
0.00125136
0.00111249
0.000883307
0.000526324
0.000207401
0.000612305
0.000957731
0.00121848
0.00140134
0.00153994
0.00165755
0.00176372
0.00186308
0.00195913
0.00205235
0.0021385
0.00221509
0.00227802
0.00232769
0.00237257
0.0024138
0.00245573
0.00248354
0.00248149
0.00244329
0.0023331
0.00213926
0.00189777
0.00168964
0.00161016
0.00158758
0.00158175
0.00155143
0.00148129
0.00138861
0.00128148
0.00114867
0.000939854
0.00065308
0.000247417
0.000677429
0.00103868
0.00128465
0.00145069
0.00158003
0.00169457
0.00180168
0.00190462
0.00200633
0.00210528
0.00219585
0.00227609
0.00234707
0.00242127
0.00250458
0.00259786
0.0027057
0.00280292
0.00285505
0.00284515
0.00275333
0.0025657
0.00232165
0.00206759
0.00179349
0.00162433
0.0015807
0.00154922
0.00149896
0.00142042
0.00132108
0.00119703
0.00101074
0.000826281
0.000310608
0.000754358
0.00109467
0.001318
0.00147244
0.00159843
0.00171402
0.00182388
0.00193045
0.00203182
0.00212134
0.00220476
0.0022817
0.00235285
0.00243098
0.00253689
0.00270438
0.00291548
0.00311009
0.00324183
0.0032696
0.00320725
0.00303068
0.00279184
0.00249027
0.00213414
0.00181071
0.00162331
0.00155931
0.00151259
0.00144454
0.00135573
0.00124279
0.00108364
0.000959173
0.000423194
0.000857551
0.00116948
0.00135989
0.00149428
0.00161311
0.00172601
0.00183474
0.00193973
0.00203653
0.00212071
0.00218941
0.00224599
0.00229951
0.00237556
0.0025177
0.002759
0.0030545
0.00332895
0.00350099
0.00354998
0.0034949
0.00335727
0.00315307
0.00287005
0.00248663
0.00203957
0.00169623
0.00156162
0.00151339
0.00145551
0.00137494
0.00127472
0.00113847
0.000978458
0.000521875
0.000914103
0.00118734
0.0013633
0.00149673
0.00161522
0.00172796
0.00183646
0.00193884
0.00202635
0.00209033
0.0021331
0.0021616
0.00218569
0.00224048
0.00239382
0.00268734
0.00304775
0.00333994
0.00352279
0.00361368
0.00362605
0.00356846
0.00343968
0.00323746
0.00294423
0.00252905
0.00204875
0.00169911
0.00154335
0.00146535
0.00139745
0.00131396
0.00117238
0.000969935
0.000578698
0.00092507
0.00119072
0.00136148
0.00148636
0.0016003
0.00171326
0.00182427
0.00192756
0.00201646
0.00208123
0.00211658
0.00212177
0.00210391
0.00207911
0.00209991
0.00224575
0.00255354
0.00289473
0.00317032
0.00336385
0.00347777
0.00350459
0.00343895
0.00327503
0.0030063
0.00261927
0.00216518
0.00180028
0.00160679
0.0015025
0.00141874
0.00131825
0.00116525
0.000832359
0.000596788
0.000925626
0.00117959
0.00134265
0.00146781
0.00158343
0.00169657
0.00180861
0.00191627
0.00201082
0.00208021
0.00211431
0.00211771
0.0020944
0.00205242
0.00201594
0.00207656
0.00231555
0.0026234
0.00289536
0.00311291
0.00325939
0.00331467
0.00328313
0.00314103
0.00287606
0.00250945
0.00211639
0.00180901
0.00163038
0.00151311
0.00141724
0.00130449
0.00106871
0.000599702
0.000591876
0.000897125
0.00115791
0.00132627
0.00145095
0.00156377
0.0016754
0.00178879
0.00190173
0.00200595
0.00208821
0.0021395
0.00214643
0.00211267
0.00204668
0.00197437
0.00194626
0.00199353
0.00223042
0.00251198
0.00276323
0.00291705
0.00295769
0.00291266
0.00276485
0.0025326
0.00225603
0.00199083
0.00178564
0.00163395
0.00151427
0.00140097
0.00123498
0.000922149
0.000424478
0.000522604
0.000846282
0.0011156
0.00128798
0.00141552
0.00153015
0.00164159
0.00175408
0.00186987
0.00198534
0.0020904
0.00217619
0.00222356
0.00222547
0.00217726
0.00208491
0.00197044
0.00190023
0.00189816
0.00201484
0.0022286
0.00239576
0.00248295
0.00249298
0.00241977
0.00227302
0.00209
0.00191194
0.00176111
0.00163337
0.0015128
0.0013662
0.00116159
0.000820063
0.000357612
0.000471343
0.000806034
0.00108556
0.00126658
0.00139736
0.00151204
0.00162265
0.0017339
0.00184826
0.00196452
0.00207941
0.00218517
0.00226672
0.00230562
0.00230275
0.00225169
0.00215275
0.00201766
0.00187863
0.00183203
0.00189239
0.00203729
0.00214985
0.00219018
0.00216599
0.00208095
0.00196226
0.00184035
0.0017295
0.00162262
0.00150446
0.00136058
0.00115079
0.000812752
0.000362556
0.00040002
0.000750215
0.00103542
0.00122449
0.00136154
0.00148079
0.00159556
0.00171164
0.0018318
0.00195387
0.00207443
0.00219069
0.0022949
0.00237516
0.00241895
0.00241866
0.00236715
0.0022617
0.00211234
0.00193596
0.00180117
0.00179518
0.00188205
0.00196988
0.00200282
0.0019764
0.00190371
0.00181052
0.00171191
0.0016121
0.00150146
0.00136327
0.00115712
0.000824826
0.00041645
0.000358524
0.000718438
0.00100837
0.00120359
0.00134213
0.0014604
0.00157456
0.00169161
0.00181401
0.00193997
0.0020679
0.00218989
0.0023088
0.00241838
0.00250398
0.00255203
0.0025547
0.00250591
0.00239634
0.00222271
0.00201602
0.00182716
0.00175695
0.00177548
0.00183287
0.00186044
0.00184439
0.0017881
0.00170925
0.00161628
0.00151034
0.00138466
0.00120025
0.000894543
0.000518987
0.000323962
0.00068231
0.000974035
0.00117477
0.0013175
0.00143863
0.00155614
0.00167824
0.00180734
0.00193934
0.00207084
0.00219832
0.00232648
0.00245313
0.00256812
0.00265513
0.00270017
0.00269464
0.0026338
0.00250871
0.00231238
0.00206317
0.00183878
0.00173558
0.00172592
0.00175372
0.00176941
0.00174966
0.00169262
0.00161376
0.00151677
0.00139946
0.00123273
0.000955859
0.000592785
0.000307584
0.000674823
0.000967223
0.00116458
0.00130166
0.00141727
0.00153093
0.00165266
0.0017862
0.00192642
0.00206815
0.00220227
0.00233774
0.00247769
0.00261734
0.00274125
0.00282969
0.00286629
0.00284361
0.00275445
0.00259648
0.00236265
0.00205967
0.00179597
0.00169845
0.00168548
0.00170248
0.00170367
0.00167299
0.00160613
0.00151682
0.00140523
0.00124774
0.000984031
0.000615532
0.000295753
0.000670209
0.000962993
0.00115507
0.0012887
0.00140138
0.00151355
0.00163682
0.00177517
0.00192095
0.00206779
0.00220709
0.00234655
0.00249317
0.00264874
0.00280376
0.00293663
0.00302501
0.00305559
0.00302448
0.00292657
0.00276141
0.00251473
0.00216931
0.0018111
0.00168712
0.00166142
0.00166109
0.00164798
0.00160035
0.00152299
0.00141993
0.00127223
0.0010218
0.000675999
0.000294094
0.00067336
0.000967035
0.00115395
0.00127809
0.00138229
0.00148887
0.00161196
0.00175696
0.00191612
0.0020712
0.00221679
0.00235808
0.00250387
0.00266228
0.00283253
0.00299654
0.00312939
0.00321334
0.0032407
0.00321095
0.00312002
0.00295965
0.0027042
0.00232823
0.00187975
0.00167521
0.00164191
0.00162536
0.00159318
0.00153146
0.00144122
0.00130878
0.00108217
0.000773429
0.000310183
0.000706484
0.000993503
0.00116355
0.00127622
0.00137284
0.00147518
0.00159906
0.00174974
0.00191786
0.00208896
0.00224584
0.0023935
0.00253986
0.00269534
0.0028651
0.0030384
0.00319389
0.00331032
0.00337705
0.00339299
0.00335668
0.00325831
0.0030876
0.00281642
0.00241515
0.0019477
0.00167674
0.00162738
0.00159106
0.00153399
0.00145337
0.00133544
0.00113044
0.00082698
0.000349344
0.000751297
0.00102189
0.00117353
0.00127255
0.0013599
0.00145643
0.00158023
0.00173803
0.00191845
0.00210049
0.00226969
0.00242721
0.00258014
0.00273605
0.00289939
0.00306779
0.00322635
0.00335676
0.00344847
0.00349669
0.00349616
0.00344231
0.00332383
0.00312614
0.00281535
0.00237288
0.00191199
0.00166753
0.00159302
0.00153472
0.00145963
0.00135072
0.00115531
0.00083179
0.000424313
0.000813759
0.00105438
0.00117981
0.00126877
0.00134902
0.00143934
0.00156073
0.00172198
0.00190782
0.00209673
0.00227369
0.00243943
0.00260298
0.00277095
0.00294365
0.00311217
0.00326649
0.00339849
0.00349988
0.00356288
0.00358174
0.00354987
0.00345915
0.00329935
0.00304752
0.00266715
0.00218277
0.00178059
0.00161941
0.00154221
0.0014668
0.00136213
0.00117004
0.000824566
0.000514788
0.000853599
0.00106031
0.00117892
0.00125794
0.00132737
0.00140452
0.00151176
0.00166293
0.00184482
0.00203535
0.00222056
0.00239813
0.00257707
0.00276101
0.0029434
0.00311427
0.00326807
0.00340121
0.0035067
0.00357796
0.00361121
0.00360097
0.00353855
0.00341345
0.00320931
0.00289425
0.00244443
0.00196558
0.00166317
0.00154875
0.00146868
0.00136928
0.00118063
0.000809924
0.000568114
0.000856067
0.00105865
0.00117071
0.00124541
0.0013057
0.00135964
0.00142818
0.0015383
0.00169208
0.00187383
0.00206457
0.00225377
0.00244883
0.0026514
0.00285256
0.00303868
0.00320454
0.00335272
0.00347173
0.00355282
0.00359463
0.003594
0.00354416
0.00344515
0.00328502
0.00304239
0.00268786
0.00223155
0.00182951
0.00159495
0.00147693
0.00137142