/*--------------------------------*- C++ -*----------------------------------*\
| =========                 |                                                 |
| \\      /  F ield         | OpenFOAM: The Open Source CFD Toolbox           |
|  \\    /   O peration     | Version:  2.0.x                                 |
|   \\  /    A nd           | Web:      www.OpenFOAM.org                      |
|    \\/     M anipulation  |                                                 |
\*---------------------------------------------------------------------------*/
FoamFile
{
    version     2.0;
    format      ascii;
    class       volScalarField;
    location    "550";
    object      omega;
}
// * * * * * * * * * * * * * * * * * * * * * * * * * * * * * * * * * * * * * //

dimensions      [0 0 -1 0 0 0 0];

internalField   nonuniform List<scalar> 
78750
(
1022.01
6.87888
7.32682
7.45697
7.55504
7.69156
7.82679
7.93166
8.02384
8.10305
8.17075
8.22814
8.27643
8.31596
8.34757
8.37184
8.38971
8.40045
8.40745
8.40684
8.40295
8.40119
8.39497
8.38743
8.37105
8.34537
8.31164
8.27159
8.22138
8.16659
8.10538
8.03329
7.9433
7.60943
1091.65
1021.88
6.05668
6.45746
6.67431
7.08617
7.52008
7.85222
8.12992
8.3609
8.54983
8.70366
8.82698
8.92418
8.99868
9.05297
9.08901
9.10936
9.11165
9.106
9.08596
9.05132
8.99874
8.9299
8.84834
8.76409
8.68077
8.59863
8.51466
8.4235
8.32578
8.22295
8.10224
7.9348
7.53
1092.96
1021.25
5.02311
5.65758
6.36924
7.056
7.70646
8.16915
8.49714
8.73852
8.91912
9.05519
9.15617
9.22836
9.27595
9.30166
9.30669
9.29936
9.27318
9.23074
9.17348
9.10808
9.03828
8.95257
8.85177
8.73976
8.6204
8.49917
8.36986
8.23977
8.12731
8.0352
7.95012
7.76884
7.37978
1093.41
1021.22
5.53571
6.6728
7.61123
8.27915
8.65044
8.91277
9.10087
9.23827
9.34322
9.42406
9.4847
9.52699
9.55174
9.55883
9.55324
9.52833
9.48668
9.42858
9.35376
9.2575
9.13884
9.01261
8.87993
8.742
8.59463
8.44505
8.28799
8.12993
7.98618
7.86148
7.75262
7.5806
7.26752
1093.62
1021.3
5.93237
7.11754
7.89601
8.39512
8.73991
8.98619
9.17892
9.33572
9.46219
9.56111
9.6339
9.68149
9.70424
9.70374
9.68408
9.63967
9.57472
9.4908
9.38909
9.27062
9.13984
9.00013
8.84945
8.68039
8.50475
8.33241
8.15333
7.97264
7.81153
7.67554
7.56679
7.41372
7.15699
1093.62
1021.58
6.3295
7.55499
8.33411
8.80502
9.10746
9.33345
9.50775
9.64237
9.74505
9.81971
9.86846
9.8926
9.89324
9.87767
9.83689
9.77577
9.69507
9.59583
9.47892
9.34444
9.19434
9.0304
8.85431
8.66813
8.47586
8.28035
8.07664
7.86872
7.68117
7.51949
7.39543
7.25879
7.04644
1093.55
1021.83
6.56391
7.72428
8.42572
8.85494
9.14938
9.37136
9.55103
9.69811
9.81616
9.90663
9.96964
10.0052
10.014
10.0008
9.96032
9.89612
9.80882
9.69923
9.56942
9.42221
9.26045
9.08452
8.89498
8.69304
8.48499
8.27897
8.07154
7.85205
7.63372
7.43937
7.28617
7.13781
6.94014
1093.42
1022.09
6.77028
7.90249
8.58654
9.02352
9.33113
9.56599
9.75002
9.8958
10.01
10.0951
10.1524
10.1823
10.1849
10.1639
10.1143
10.0414
9.94606
9.82902
9.69132
9.53471
9.36204
9.17417
8.97275
8.76004
8.5401
8.31788
8.08994
7.84431
7.59475
7.36974
7.19176
7.03561
6.84093
1093.27
1022.2
6.82207
7.92489
8.61043
9.04819
9.35283
9.58747
9.77831
9.93656
10.0658
10.1673
10.2417
10.2889
10.3086
10.3013
10.2657
10.2021
10.1121
9.9988
9.86315
9.70711
9.53379
9.34449
9.14002
8.92151
8.69194
8.45456
8.2034
7.92467
7.6317
7.36241
7.13212
6.94545
6.73901
1093.1
1022.29
6.88581
8.00582
8.71258
9.16218
9.4746
9.7156
9.91087
10.0716
10.202
10.3046
10.3808
10.4314
10.4564
10.4558
10.4295
10.3753
10.2925
10.1815
10.0466
9.89136
9.71824
9.52842
9.32254
9.10152
8.86669
8.61641
8.33912
8.03142
7.71521
7.40021
7.12511
6.89224
6.66855
1093.02
1022.3
6.89082
8.01274
8.72308
9.1839
9.5062
9.7559
9.95989
10.1298
10.2702
10.3838
10.472
10.5357
10.5747
10.5883
10.5779
10.5389
10.4708
10.3726
10.2446
10.0927
9.92099
9.73136
9.52428
9.29999
9.05966
8.80206
8.51538
8.1955
7.85802
7.49901
7.14907
6.87718
6.63259
1093.02
1022.33
6.94802
8.10864
8.84048
9.30616
9.62865
9.87794
10.0818
10.2512
10.3909
10.5041
10.5927
10.6584
10.7016
10.722
10.7196
10.6918
10.636
10.5489
10.43
10.2804
10.1065
9.91466
9.70332
9.47288
9.22519
8.95897
8.6636
8.34116
7.99915
7.61566
7.21804
6.89098
6.63692
1093.07
1022.38
7.00206
8.17444
8.91044
9.3775
9.70333
9.95654
10.1649
10.3381
10.4811
10.5972
10.6884
10.7565
10.8022
10.825
10.8243
10.8025
10.7552
10.6824
10.5812
10.4488
10.2847
10.089
9.86784
9.62592
9.36601
9.08741
8.78004
8.44988
8.10391
7.7139
7.29459
6.93718
6.66746
1093.21
1022.47
7.12029
8.32109
9.05776
9.51428
9.83275
10.0812
10.2864
10.4567
10.5969
10.7102
10.7988
10.8646
10.9086
10.9313
10.9334
10.9196
10.8818
10.8195
10.7293
10.6092
10.4589
10.2749
10.0537
9.79551
9.50856
9.19977
8.86415
8.51871
8.16712
7.77834
7.35865
6.99736
6.72716
1093.33
1022.59
7.22933
8.43129
9.15735
9.60522
9.92091
10.1696
10.375
10.5455
10.6858
10.7992
10.8878
10.953
10.9962
11.0186
11.0201
11.0043
10.9643
10.9016
10.8143
10.7014
10.5621
10.3925
10.1884
9.94475
9.65519
9.31437
8.94994
8.59125
8.21784
7.81477
7.39944
7.05115
6.78611
1093.41
1022.71
7.35563
8.5687
9.28209
9.71849
10.0261
10.2696
10.4708
10.638
10.7763
10.8887
10.9768
11.0419
11.0849
11.1059
11.1054
11.0851
11.0429
10.9797
10.8944
10.7869
10.6549
10.4947
10.3021
10.0722
9.79778
9.46847
9.093
8.68865
8.2656
7.83699
7.42555
7.09632
6.8318
1093.41
1022.83
7.46296
8.67466
9.37456
9.80191
10.1042
10.3449
10.5434
10.7087
10.8464
10.959
11.0478
11.1135
11.1564
11.1762
11.1742
11.1502
11.1059
11.0419
10.9582
10.855
10.7292
10.5777
10.3956
10.1775
9.9174
9.60704
9.24746
8.83184
8.34485
7.85892
7.43858
7.12525
6.86143
1093.41
1022.92
7.56673
8.7845
9.4741
9.8915
10.1865
10.4209
10.6143
10.7764
10.9126
11.0258
11.1171
11.1865
11.2329
11.2555
11.2546
11.2318
11.1872
11.1232
11.0413
10.9404
10.8193
10.6768
10.509
10.3113
10.0775
9.80372
9.47828
9.06504
8.53942
7.96107
7.48172
7.15877
6.89065
1093.42
1023.01
7.65788
8.8764
9.55651
9.96525
10.2541
10.4826
10.671
10.8298
10.9649
11.0797
11.175
11.25
11.3027
11.331
11.334
11.3154
11.272
11.2082
11.1263
11.0248
10.9044
10.766
10.6072
10.4245
10.2127
9.96604
9.66697
9.27405
8.75231
8.13382
7.57051
7.21117
6.92629
1093.45
1023.09
7.7512
8.97542
9.64616
10.044
10.3241
10.5448
10.7268
10.881
11.0146
11.1314
11.232
11.3152
11.3777
11.4163
11.429
11.4172
11.3798
11.3201
11.2389
11.1358
11.0129
10.873
10.7166
10.5416
10.3455
10.1174
9.82936
9.44457
8.93231
8.30383
7.6945
7.28811
6.9752
1093.49
1023.2
7.8504
9.07187
9.7299
10.1162
10.3872
10.5996
10.7749
10.9245
11.056
11.1737
11.2791
11.3704
11.4432
11.493
11.5172
11.5151
11.4872
11.4351
11.3577
11.2552
11.1306
10.9884
10.8311
10.6587
10.4695
10.2509
9.97276
9.59805
9.09461
8.46494
7.83146
7.38966
7.04278
1093.55
1023.32
7.95964
9.17202
9.81296
10.1848
10.4444
10.6471
10.8148
10.9594
11.089
11.2087
11.3202
11.4206
11.5043
11.5661
11.6024
11.6119
11.5962
11.5528
11.4808
11.3802
11.2539
11.1075
10.9466
10.7759
10.5907
10.3717
10.0928
9.72339
9.22862
8.60671
7.96464
7.50121
7.12371
1093.62
1023.42
8.0488
9.25194
9.87824
10.2374
10.4855
10.6784
10.8381
10.9778
11.1073
11.2311
11.3497
11.459
11.5526
11.625
11.6728
11.6946
11.6906
11.6582
11.5954
11.5018
11.3798
11.2351
11.0739
10.9016
10.7136
10.4907
10.2087
9.83868
9.34802
8.73449
8.09215
7.61688
7.21308
1093.69
1023.44
8.10486
9.31532
9.93341
10.2814
10.518
10.7
10.8514
10.9874
11.1177
11.2479
11.3764
11.496
11.5992
11.6806
11.7375
11.7692
11.775
11.7528
11.699
11.6137
11.4983
11.3585
11.2022
11.0333
10.8427
10.6131
10.3246
9.94967
9.45891
8.85276
8.21445
7.73239
7.30568
1093.76
1023.45
8.16405
9.38603
9.99512
10.3312
10.5549
10.724
10.8639
10.9938
11.1278
11.2708
11.4173
11.5533
11.6687
11.758
11.8204
11.8573
11.8677
11.8508
11.8038
11.7267
11.6206
11.49
11.3409
11.1745
10.9809
10.7455
10.4502
10.0689
9.57493
8.97225
8.33748
7.84959
7.40279
1093.85
1023.53
8.26949
9.49352
10.0833
10.4012
10.6076
10.7586
10.8809
10.9971
11.1325
11.2989
11.4779
11.6401
11.7756
11.876
11.9423
11.9783
11.9855
11.9657
11.9172
11.8407
11.7376
11.6118
11.4679
11.3044
11.1104
10.8719
10.5712
10.1839
9.68771
9.08679
8.45869
7.96706
7.50024
1093.93
1023.81
8.44501
9.63318
10.1877
10.4831
10.6704
10.8011
10.901
10.9981
11.1317
11.3089
11.5121
11.7157
11.8813
12.0029
12.0816
12.1177
12.1217
12.0965
12.0423
11.9606
11.8539
11.7267
11.5808
11.4117
11.2112
10.9668
10.6603
10.269
9.77456
9.18109
8.56786
8.07535
7.58585
1093.96
1024.32
8.67343
9.78249
10.2866
10.562
10.7369
10.8447
10.9087
10.9688
11.0937
11.2862
11.5102
11.7217
11.9006
12.0407
12.1431
12.2101
12.2346
12.2204
12.1708
12.0886
11.9807
11.8503
11.6972
11.5175
11.3041
11.0455
10.7259
10.3262
9.83381
9.25318
8.66223
8.17182
7.65828
1093.95
1024.96
8.86232
9.85381
10.3371
10.6138
10.7923
10.8932
10.9246
10.9399
10.9988
11.1483
11.3705
11.6001
11.8132
11.9902
12.1236
12.2115
12.2576
12.2648
12.2367
12.1762
12.0836
11.9612
11.8078
11.6213
11.3969
11.1244
10.7901
10.3794
9.8849
9.31456
8.74281
8.25411
7.71548
1093.9
1025.23
8.87081
9.85858
10.3409
10.6321
10.8429
10.9613
10.9868
10.9691
10.9627
11.0073
11.0866
11.2541
11.4817
11.6962
11.8879
12.0405
12.1466
12.2056
12.2185
12.1909
12.126
12.0244
11.8851
11.7059
11.4816
11.2031
10.8595
10.4403
9.94055
9.37396
8.81479
8.32586
7.76357
1093.83
1025.22
8.79776
9.80388
10.314
10.6328
10.8682
11.044
11.1116
11.117
11.0636
11.0032
10.9894
11.0231
11.0799
11.226
11.4281
11.6311
11.8018
11.9353
12.0234
12.0589
12.0484
11.9917
11.8861
11.7351
11.5332
11.2707
10.9328
10.512
10.0083
9.44246
8.89113
8.3986
7.81143
1093.78
1024.89
8.57482
9.65198
10.2295
10.595
10.8643
11.069
11.2347
11.3167
11.3272
11.2717
11.169
11.0564
10.9853
10.9664
11.0025
11.0888
11.2429
11.4319
11.5985
11.7221
11.7965
11.8193
11.7869
11.6883
11.5199
11.2765
10.9635
10.5645
10.0697
9.50935
8.96569
8.46765
7.85451
1093.75
1024.18
8.25963
9.43331
10.0893
10.4994
10.8037
11.0462
11.2411
11.4078
11.5411
11.5957
11.5946
11.512
11.3659
11.1872
11.0206
10.9016
10.8481
10.8684
10.9659
11.1179
11.2804
11.4128
11.4885
11.4906
11.4077
11.2346
10.9568
10.5783
10.109
9.56752
9.03811
8.54024
7.91007
1093.76
1023.35
7.87829
9.14645
9.89965
10.3674
10.7028
10.9748
11.206
11.4084
11.5901
11.7457
11.8619
11.9151
11.9077
11.8136
11.6383
11.4034
11.1414
10.8956
10.7108
10.6119
10.6209
10.7512
10.9283
11.0789
11.1406
11.0837
10.8912
10.5728
10.1383
9.62356
9.11249
8.61829
7.97365
1093.85
1022.75
7.57652
8.91235
9.75588
10.2872
10.6547
10.9403
11.1828
11.3978
11.5988
11.7918
11.9695
12.1177
12.2159
12.2491
12.2077
12.087
11.888
11.6204
11.3017
10.9647
10.6699
10.4946
10.4518
10.5123
10.6429
10.7376
10.7094
10.5048
10.1302
9.66713
9.18298
8.70501
8.07252
1094.11
1022.45
7.43196
8.84883
9.73239
10.2809
10.6535
10.9408
11.1858
11.4179
11.6524
11.8911
12.1238
12.3323
12.4932
12.5857
12.5985
12.5476
12.416
12.2169
11.9534
11.6261
11.2405
10.8534
10.5684
10.4189
10.3787
10.4056
10.4182
10.3471
10.1007
9.69759
9.25539
8.80263
8.19847
1094.53
1022.43
7.42192
8.86606
9.80351
10.3922
10.7717
11.0523
11.2921
11.528
11.7853
12.0746
12.3797
12.6645
12.8909
13.0327
13.0759
13.0373
12.9091
12.707
12.4393
12.1064
11.7027
11.2655
10.8732
10.547
10.3617
10.2723
10.2461
10.1911
10.0147
9.69454
9.30853
8.89819
8.34472
1095.05
1022.61
7.71108
9.24039
10.1229
10.6333
10.9588
11.2094
11.4333
11.6851
12.0027
12.3845
12.7837
13.1475
13.4311
13.6072
13.6642
13.6235
13.4842
13.2633
12.967
12.5954
12.1429
11.6512
11.1982
10.7875
10.452
10.2656
10.1704
10.0945
9.9466
9.68185
9.34367
8.97572
8.47678
1095.47
1023.13
8.15873
9.6367
10.3882
10.7966
11.066
11.2928
11.5361
11.8681
12.3064
12.8306
13.3435
13.7704
14.078
14.2606
14.3236
14.2854
14.1393
13.8923
13.5412
13.0799
12.5205
11.9476
11.4348
10.9748
10.5816
10.2998
10.1407
10.0384
9.89983
9.67096
9.37503
9.04343
8.58671
1095.75
1024.16
8.7501
10.0354
10.6212
10.93
11.1277
11.3169
11.5679
11.9687
12.598
13.2593
13.81
14.2103
14.4747
14.6224
14.6607
14.6161
14.484
14.2629
13.942
13.5044
12.9393
12.2866
11.651
11.1053
10.6682
10.3453
10.141
10.0093
9.86496
9.65552
9.3943
9.09901
8.67389
1095.77
1025.59
9.19756
10.2014
10.6806
10.9463
11.127
11.2743
11.5037
11.9637
12.6434
13.3205
13.8603
14.2558
14.5343
14.717
14.8121
14.809
14.7044
14.4936
14.1859
13.7777
13.2688
12.6644
11.9798
11.2732
10.6982
10.3443
10.1361
9.9894
9.84029
9.6473
9.4106
9.12898
8.68005
1095.6
1026.12
9.23157
10.2133
10.6863
10.9484
11.1132
11.2089
11.2803
11.5334
12.1465
12.8892
13.5309
14.0319
14.4076
14.6696
14.823
14.8724
14.8301
14.6969
14.4501
14.0866
13.6263
13.0654
12.3825
11.6081
10.8737
10.3695
10.1177
9.96367
9.82361
9.64467
9.42657
9.14764
8.66408
1095.13
1026.11
9.19248
10.161
10.6381
10.9239
11.1119
11.2089
11.2372
11.2611
11.3215
11.7584
12.4939
13.1985
13.78
14.2239
14.5393
14.7323
14.8008
14.7542
14.5989
14.3421
13.9756
13.4951
12.8676
12.096
11.2838
10.6034
10.188
9.98445
9.83497
9.65704
9.44334
9.15425
8.61838
1094.84
1025.8
8.99856
10.0208
10.5582
10.8891
11.1166
11.2607
11.2938
11.2703
11.2556
11.2968
11.5614
12.2138
12.896
13.5086
13.9858
14.3235
14.5314
14.611
14.5697
14.4079
14.1335
13.7358
13.184
12.4674
11.6542
10.9042
10.3803
10.0824
9.88569
9.69015
9.4657
9.15722
8.57354
1094.66
1025.41
8.8299
9.90054
10.4768
10.8392
11.1027
11.2831
11.397
11.415
11.3615
11.2811
11.2452
11.2923
11.7636
12.5004
13.1603
13.6823
14.0483
14.2706
14.3569
14.3144
14.1431
13.8356
13.3656
12.7171
11.9404
11.1777
10.5919
10.2189
9.96693
9.73935
9.49368
9.15843
8.52612
1094.54
1024.83
8.57074
9.69471
10.3301
10.7387
11.0443
11.2783
11.4406
11.5316
11.5465
11.4823
11.3566
11.2445
11.2028
11.3009
11.9099
12.6522
13.2474
13.6644
13.9209
14.0308
13.9977
13.8126
13.4574
12.9115
12.2004
11.4421
10.8058
10.3661
10.0613
9.80053
9.5333
9.17684
8.52064
1094.55
1024.37
8.39028
9.54483
10.2165
10.6533
10.9808
11.2399
11.443
11.587
11.6666
11.6813
11.6223
11.4765
11.2771
11.1417
11.1311
11.4298
12.1599
12.7933
13.2462
13.5347
13.6711
13.6492
13.444
13.0541
12.4639
11.7538
11.0786
10.558
10.1821
9.87562
9.58037
9.20179
8.52712
1094.66
1024.35
8.33043
9.47425
10.162
10.6158
10.9605
11.2378
11.4551
11.6144
11.7226
11.7693
11.7657
11.7002
11.5582
11.3392
11.1237
11.0704
11.272
11.9045
12.5125
12.9481
13.2327
13.3684
13.333
13.0846
12.6524
12.0452
11.38
10.8018
10.3549
9.99413
9.66323
9.26424
8.59462
1094.92
1024.39
8.25938
9.41468
10.1268
10.5971
10.953
11.2407
11.4747
11.6674
11.8009
11.8789
11.8934
11.8509
11.7425
11.5597
11.3104
11.0977
11.0762
11.3224
11.8424
12.3745
12.7711
13.0207
13.1093
13.0124
12.6912
12.2184
11.6272
11.0255
10.5203
10.1103
9.74429
9.31672
8.63246
1094.92
1024.3
8.12445
9.29227
10.039
10.5366
10.9113
11.2171
11.4714
11.6797
11.8516
11.9742
12.0359
12.0434
11.9857
11.8496
11.6224
11.323
11.0878
11.0634
11.2879
11.7143
12.1782
12.5396
12.7472
12.772
12.5999
12.2097
11.712
11.1836
10.6795
10.2416
9.84259
9.38205
8.64799
1094.83
1023.92
7.92554
9.13894
9.93068
10.4562
10.8475
11.1669
11.4377
11.6697
11.8645
12.0202
12.1339
12.1975
12.2078
12.1566
12.0209
11.7747
11.4286
11.1088
11.0295
11.1979
11.555
11.9265
12.2321
12.3936
12.3745
12.1395
11.7066
11.2004
10.7358
10.3043
9.89576
9.40515
8.61272
1094.42
1023.56
7.7514
8.99656
9.83896
10.3957
10.8002
11.1303
11.4147
11.6614
11.873
12.0551
12.203
12.312
12.3799
12.4008
12.3727
12.2685
12.0476
11.6831
11.258
11.0373
11.069
11.3494
11.6458
11.8376
11.8892
11.7782
11.5178
11.155
10.7405
10.3451
9.93714
9.43343
8.61986
1094.26
1023.24
7.59186
8.88783
9.78076
10.3698
10.7924
11.1269
11.4137
11.6686
11.899
12.1036
12.278
12.4167
12.5201
12.5901
12.6242
12.623
12.5616
12.3963
12.072
11.5939
11.1463
11.0009
11.1599
11.4027
11.5521
11.5402
11.3675
11.0817
10.7366
10.3685
9.98423
9.49899
8.66738
1094.35
1022.87
7.51653
8.87474
9.77545
10.3676
10.7937
11.1421
11.4439
11.7128
11.9564
12.1798
12.3799
12.549
12.6829
12.7838
12.8587
12.9101
12.9326
12.9049
12.7787
12.493
11.9848
11.3592
11.0418
11.0277
11.1196
11.2292
11.2025
11.008
10.7139
10.3756
10.0115
9.54615
8.72265
1094.6
1022.8
7.51207
8.90143
9.8234
10.4229
10.8555
11.2091
11.5186
11.8003
12.0651
12.3159
12.5428
12.7399
12.8995
13.0229
13.1315
13.2324
13.3333
13.4
13.3957
13.304
13.0343
12.5427
11.9024
11.327
11.1062
11.0491
11.0387
10.9517
10.74
10.4532
10.1108
9.67052
8.93776
1095.61
1023.13
7.79028
9.19923
10.0481
10.5829
10.9815
11.3221
11.631
11.9196
12.1975
12.4612
12.6983
12.9039
13.0805
13.2608
13.4605
13.6781
13.9262
14.1497
14.2713
14.2511
14.045
13.6035
13.007
12.356
11.6168
11.145
11.0254
10.9392
10.7932
10.5541
10.2423
9.83829
9.19775
1096.94
1023.64
8.10829
9.39805
10.1576
10.6477
11.034
11.3765
11.6923
11.9899
12.2686
12.5077
12.7238
12.9195
13.0961
13.2855
13.5368
13.9268
14.4038
14.844
15.1456
15.2193
15.0934
14.7095
14.1671
13.4455
12.5399
11.6593
11.1294
10.9567
10.8295
10.6278
10.3516
9.98788
9.45614
1098
1024.58
8.52465
9.66366
10.2988
10.7295
11.0923
11.4265
11.7379
12.0275
12.287
12.5103
12.6899
12.8343
12.9664
13.1495
13.4878
14.0569
14.7448
15.3557
15.7295
15.8408
15.7333
15.4492
15.0141
14.3865
13.4859
12.3481
11.3902
10.9999
10.8399
10.6593
10.4126
10.0972
9.65272
1098.16
1025.42
8.74883
9.72937
10.3113
10.7329
11.0943
11.4276
11.739
12.0244
12.266
12.4387
12.5495
12.6214
12.6792
12.8116
13.191
13.9072
14.7458
15.3888
15.7792
15.971
15.9996
15.8839
15.618
15.1893
14.5403
13.564
12.3425
11.366
10.921
10.695
10.4876
10.2247
9.76725
1098.1
1025.9
8.79897
9.74346
10.3082
10.7034
11.0521
11.3877
11.7086
11.9992
12.2433
12.4177
12.513
12.5255
12.4754
12.4064
12.4604
12.8388
13.6089
14.4151
15.0319
15.4499
15.6914
15.7473
15.6056
15.2388
14.6278
13.7161
12.5942
11.6417
11.1096
10.8043
10.5452
10.2332
9.74157
1096.92
1026.03
8.7954
9.70588
10.2467
10.6436
10.9986
11.3363
11.6622
11.9675
12.2299
12.4185
12.5118
12.5164
12.4494
12.3297
12.2223
12.3679
12.9779
13.7388
14.382
14.8773
15.1979
15.3101
15.2303
14.9126
14.3058
13.44
12.469
11.6682
11.176
10.8364
10.5496
10.1837
9.37743
1095.11
1025.99
8.68849
9.6324
10.1948
10.5922
10.9398
11.2742
11.6052
11.9266
12.2167
12.4437
12.5817
12.6019
12.513
12.3331
12.1253
12.033
12.1267
12.728
13.4469
14.0541
14.41
14.5011
14.3955
14.0508
13.4996
12.824
12.1511
11.609
11.1897
10.8389
10.4872
9.95141
8.85109
1093.8
1025.42
8.49508
9.48664
10.0691
10.4794
10.8354
11.1717
11.5025
11.8347
12.1581
12.4448
12.6738
12.8034
12.8121
12.6909
12.4499
12.1394
11.9156
11.915
12.1969
12.7474
13.1655
13.3718
13.3969
13.224
12.868
12.4116
11.954
11.5501
11.1919
10.8365
10.3837
9.71353
8.48146
1093.33
1025.01
8.33856
9.38358
10.0007
10.4235
10.7808
11.1148
11.4415
11.7689
12.0942
12.4087
12.6914
12.9105
13.018
13.016
12.889
12.6343
12.2756
11.8786
11.7267
11.8663
12.2523
12.5512
12.6601
12.6032
12.3892
12.083
11.7584
11.4556
11.1533
10.8066
10.3659
9.68382
8.4641
1093.38
1024.43
8.11392
9.20459
9.85994
10.3087
10.6839
11.0329
11.3751
11.7191
12.0593
12.389
12.7013
12.9748
13.1833
13.3006
13.306
13.184
12.9226
12.5361
12.0556
11.6568
11.6107
11.8363
12.0782
12.1775
12.1176
11.9315
11.6825
11.4098
11.1249
10.7988
10.3751
9.70727
8.51714
1093.82
1024.09
7.98405
9.10762
9.79034
10.2471
10.6214
10.9701
11.3162
11.6671
12.0193
12.3665
12.692
13.0026
13.2846
13.5017
13.6245
13.6367
13.5237
13.2586
12.8215
12.2756
11.7395
11.5163
11.5566
11.7117
11.7964
11.761
11.6141
11.3984
11.1346
10.824
10.4413
9.85156
8.78403
1094.61
1023.81
7.8297
8.97984
9.69179
10.1675
10.5543
10.9159
11.2787
11.6487
12.0147
12.3706
12.7062
13.0375
13.3599
13.6484
13.8649
13.9789
13.9713
13.8327
13.5335
13.047
12.3934
11.765
11.4572
11.4175
11.4996
11.5521
11.5034
11.3476
11.1241
10.8392
10.4832
9.95371
9.00263
1095.15
1023.66
7.79306
8.95083
9.65448
10.1148
10.487
10.8399
11.2041
11.5887
11.9783
12.3577
12.7118
13.0593
13.4111
13.7562
14.0585
14.2741
14.3682
14.324
14.1233
13.7528
13.1806
12.3918
11.651
11.3572
11.3123
11.363
11.3735
11.2918
11.1023
10.8411
10.5007
10.0003
9.09826
1095.32
1023.57
7.77393
8.93498
9.62179
10.073
10.4381
10.7881
11.1583
11.5577
11.9629
12.3591
12.7205
13.0756
13.4421
13.8231
14.1962
14.5119
14.7226
14.8021
14.7423
14.5298
14.1572
13.5785
12.7165
11.7184
11.3211
11.2437
11.2453
11.2147
11.0837
10.8588
10.5491
10.0855
9.2434
1095.83
1023.56
7.784
8.94711
9.61717
10.038
10.3778
10.7133
11.0859
11.5068
11.9495
12.364
12.7403
13.0972
13.4594
13.8457
14.2535
14.6391
14.9473
15.1429
15.2128
15.1568
14.9657
14.6169
14.0404
13.1384
11.943
11.3053
11.195
11.1521
11.0604
10.8823
10.6132
10.2028
9.45766
1096.59
1023.68
7.91578
9.0402
9.64769
10.0309
10.3477
10.6714
11.0479
11.4863
11.9538
12.4067
12.8111
13.1787
13.5355
13.9101
14.3143
14.7199
15.0774
15.3422
15.4955
15.5383
15.4685
15.2645
14.8994
14.2978
13.3511
12.1293
11.3171
11.1497
11.0505
10.8865
10.6475
10.2851
9.61929
1096.97
1023.99
8.09832
9.14438
9.68261
10.0211
10.3089
10.6164
10.995
11.4563
11.9597
12.4466
12.8788
13.2669
13.6329
13.9991
14.382
14.7729
15.1354
15.4297
15.6358
15.7471
15.7544
15.6479
15.402
14.9792
14.2872
13.2313
12.0115
11.2928
11.0647
10.8925
10.6676
10.3318
9.6986
1097
1024.59
8.34917
9.26413
9.71022
10.0113
10.2768
10.5679
10.9438
11.4201
11.9417
12.4464
12.8968
13.3038
13.694
14.0862
14.4841
14.8682
15.2157
15.5097
15.7348
15.8768
15.9254
15.8674
15.6841
15.35
14.8054
13.9389
12.736
11.6244
11.1384
10.9144
10.6895
10.3697
9.75197
1096.95
1025.34
8.52024
9.29188
9.70802
9.97799
10.2113
10.4666
10.8105
11.2703
11.7933
12.3099
12.7866
13.2242
13.6506
14.0793
14.493
14.8777
15.2205
15.5142
15.7453
15.9024
15.9796
15.9666
15.8451
15.5909
15.1622
14.4729
13.4183
12.1698
11.2881
10.9209
10.6927
10.3896
9.78455
1096.87
1025.85
8.53617
9.28948
9.68243
9.93599
10.1393
10.3245
10.5635
10.9155
11.3831
11.8978
12.4062
12.8847
13.3581
13.8347
14.2969
14.7166
15.0849
15.4103
15.6698
15.8471
15.9423
15.9483
15.8511
15.6484
15.3129
14.7898
13.9917
12.8802
11.7905
11.0975
10.726
10.401
9.78629
1096.77
1025.85
8.46539
9.213
9.62996
9.90393
10.1006
10.2418
10.3554
10.5244
10.8484
11.3009
11.8081
12.3225
12.8417
13.3708
13.8892
14.3598
14.7771
15.154
15.4537
15.6606
15.7812
15.8156
15.7626
15.5946
15.2874
14.7883
14.0567
13.0997
12.095
11.3226
10.8375
10.4136
9.72918
1096.12
1025.43
8.2407
9.07452
9.54582
9.85448
10.0793
10.236
10.3408
10.4085
10.4699
10.6578
11.0417
11.5056
12.015
12.5639
13.1396
13.6891
14.1913
14.6579
15.0215
15.2644
15.4126
15.4668
15.4306
15.2844
15.0121
14.5874
13.9445
13.0659
12.1123
11.3984
10.8915
10.3967
9.5272
1095.15
1024.73
8.01996
8.93212
9.44644
9.78308
10.0359
10.2226
10.3439
10.4104
10.4432
10.4719
10.5213
10.7666
11.1768
11.646
12.1765
12.7433
13.3242
13.9089
14.381
14.6943
14.8816
14.9618
14.9524
14.8253
14.564
14.1496
13.5618
12.8202
12.0573
11.4101
10.8876
10.2911
9.25952
1094.45
1024.23
7.84287
8.80319
9.35712
9.72388
10.0046
10.2221
10.3786
10.4737
10.5042
10.5011
10.4951
10.5241
10.6058
10.8527
11.2313
11.6797
12.196
12.7855
13.3624
13.83
14.1434
14.3109
14.3547
14.2823
14.0809
13.7374
13.2476
12.6451
12.0198
11.4417
10.8984
10.2397
9.12083
1094.23
1023.76
7.66748
8.68401
9.27291
9.66078
9.96046
10.204
10.3952
10.5333
10.6166
10.6362
10.6062
10.567
10.5649
10.6403
10.7995
11.0857
11.465
11.9244
12.446
12.9359
13.32
13.5773
13.7061
13.7094
13.5866
13.3347
12.9573
12.4815
11.9616
11.4439
10.9149
10.2479
9.13057
1094.28
1023.41
7.51473
8.57956
9.21099
9.63092
9.94831
10.2011
10.4061
10.5702
10.6915
10.7674
10.7884
10.7582
10.692
10.6446
10.6678
10.7864
10.9924
11.2909
11.666
12.0912
12.5139
12.872
13.1217
13.2367
13.2132
13.0534
12.765
12.3782
11.9336
11.4572
10.9553
10.3067
9.19217
1094.66
1023.16
7.41806
8.52191
9.1949
9.62929
9.96181
10.2352
10.4584
10.6354
10.771
10.8701
10.9341
10.9605
10.9473
10.8926
10.8207
10.7935
10.8675
11.0396
11.2561
11.4998
11.7824
12.1042
12.4253
12.6807
12.8102
12.7924
12.6352
12.3385
11.951
11.5186
11.0399
10.419
9.36317
1095.25
1023.1
7.37856
8.5056
9.19425
9.6575
10.0134
10.3029
10.5393
10.7292
10.8787
10.9952
11.0845
11.1509
11.1987
11.2168
11.1995
11.1622
11.1785
11.2898
11.4398
11.583
11.7165
11.8238
11.9409
12.1212
12.315
12.4321
12.4158
12.2517
11.9489
11.5779
11.1379
10.5611
9.58557
1095.98
1023.13
7.37776
8.51984
9.23111
9.70711
10.0747
10.3785
10.6301
10.8352
10.9994
11.1337
11.2474
11.35
11.4557
11.5626
11.6551
11.7174
11.7774
11.8758
11.9862
12.0649
12.0828
12.0621
12.0259
12.0169
12.0229
12.0841
12.1374
12.0939
11.9037
11.5815
11.1979
10.6851
9.81355
1096.65
1023.28
7.45852
8.58326
9.27776
9.75589
10.1368
10.4556
10.7197
10.9321
11.0988
11.2333
11.3499
11.4719
11.6294
11.8222
12.0176
12.1851
12.3176
12.4424
12.5525
12.6242
12.6379
12.586
12.4583
12.2637
12.0928
11.9974
11.9475
11.917
11.792
11.5497
11.2047
10.7569
9.97577
1096.97
1023.44
7.51022
8.60849
9.30277
9.79399
10.1901
10.525
10.8037
11.0265
11.1975
11.3293
11.4341
11.5364
11.6806
11.9097
12.2083
12.4954
12.7239
12.9023
13.0307
13.1059
13.1221
13.0728
12.9468
12.7381
12.4603
12.153
11.949
11.8078
11.6798
11.474
11.1875
10.7838
10.0631
1096.99
1023.56
7.5475
8.62138
9.30789
9.80242
10.2179
10.5713
10.8659
11.0989
11.2716
11.3925
11.4722
11.5398
11.648
11.8799
12.2233
12.5946
12.9249
13.1816
13.3573
13.4587
13.4921
13.4568
13.3465
13.1511
12.8636
12.4985
12.1241
11.83
11.6148
11.4029
11.1408
10.7759
10.0668
1096.83
1023.56
7.55035
8.61185
9.29199
9.7963
10.2245
10.6042
10.925
11.1819
11.3724
11.4953
11.5566
11.5782
11.6083
11.7083
11.9931
12.3987
12.818
13.164
13.4055
13.5663
13.6538
13.6692
13.6045
13.45
13.1942
12.8337
12.3979
11.9736
11.6281
11.3625
11.1014
10.7537
10.0599
1096.64
1023.51
7.49523
8.54777
9.23602
9.75967
10.2163
10.6222
10.9729
11.2612
11.4795
11.6211
11.6854
11.6848
11.6423
11.6324
11.7288
12.0508
12.5055
12.9462
13.289
13.5149
13.6458
13.694
13.6782
13.5846
13.3908
13.08
12.6551
12.1733
11.7306
11.3762
11.0804
10.7198
10.0044
1096.44
1023.5
7.46896
8.50509
9.18944
9.72472
10.204
10.6404
11.0228
11.3413
11.5845
11.7486
11.835
11.8485
11.7995
11.721
11.6954
11.8297
12.1794
12.6218
13.015
13.3106
13.5117
13.6307
13.656
13.584
13.4287
13.1718
12.804
12.3351
11.8556
11.4428
11.0907
10.6916
9.93556
1096.21
1023.5
7.42044
8.43449
9.12143
9.67523
10.1814
10.6478
11.0694
11.4163
11.6818
11.8625
11.9595
11.9769
11.924
11.8203
11.7181
11.7277
11.9419
12.3203
12.7176
13.0484
13.293
13.4555
13.5347
13.5278
13.4119
13.1759
12.8299
12.4033
11.9358
11.5054
11.1193
10.6692
9.85273
1095.99
1023.49
7.36265
8.35047
9.03397
9.6017
10.1344
10.6349
11.0803
11.4636
11.76
11.9666
12.0826
12.1087
12.0542
11.9283
11.766
11.6815
11.7849
12.091
12.4663
12.8073
13.0729
13.2593
13.366
13.3872
13.311
13.126
12.8195
12.4081
11.9763
11.5523
11.1424
10.6459
9.76077
1095.76
1023.42
7.27242
8.23989
8.92021
9.49852
10.0534
10.5838
11.0643
11.4737
11.8092
12.0486
12.1929
12.2385
12.1933
12.0548
11.8408
11.6415
11.6104
11.8356
12.1942
12.5417
12.8302
13.0404
13.1692
13.2122
13.1632
13.0095
12.7466
12.392
11.9795
11.568
11.1438
10.6188
9.67776
1095.54
1023.31
7.16507
8.11341
8.78723
9.37059
9.9411
10.4973
11.0115
11.4602
11.828
12.1169
12.3085
12.3964
12.3879
12.269
12.0382
11.739
11.5297
11.5495
11.8254
12.1811
12.5023
12.76
12.9327
13.0121
12.9977
12.8808
12.6593
12.3483
11.9768
11.5717
11.1408
10.5885
9.60657
1095.4
1023.17
7.04135
7.97437
8.64071
9.22439
9.80376
10.3783
10.9206
11.4069
11.8207
12.152
12.3954
12.5441
12.5881
12.5195
12.3267
12.0131
11.6536
11.4572
11.5409
11.8198
12.1332
12.4087
12.627
12.7626
12.7985
12.7277
12.5516
12.2832
11.947
11.5668
11.1437
10.5895
9.59645
1095.39
1023.02
6.9159
7.83387
8.49019
9.06992
9.65303
10.2398
10.8048
11.3219
11.7752
12.155
12.4573
12.6709
12.7835
12.7848
12.6622
12.4078
12.0323
11.6349
11.469
11.5646
11.826
12.1048
12.3325
12.4913
12.5697
12.5505
12.4237
12.2014
11.9038
11.5514
11.1441
10.5939
9.60038
1095.42
1022.87
6.79601
7.69864
8.34354
8.91684
9.49966
10.0909
10.6698
11.2097
11.6944
12.1155
12.4675
12.7491
12.9435
13.0308
13.0021
12.8471
12.5558
12.1379
11.6957
11.5172
11.5845
11.8174
12.0659
12.2504
12.354
12.3669
12.2897
12.1132
11.8555
11.5327
11.151
10.6181
9.6429
1095.59
1022.76
6.69253
7.57524
8.20789
8.77623
9.36089
9.95602
10.5396
11.0916
11.5961
12.0456
12.436
12.7634
13.0246
13.1974
13.2642
13.2204
13.0555
12.7582
12.3305
11.8414
11.5854
11.6096
11.7856
12.0051
12.1595
12.2194
12.1846
12.0468
11.8262
11.5363
11.1785
10.6694
9.72621
1095.91
1022.7
6.60909
7.46623
8.08431
8.6483
9.23751
9.83925
10.425
10.9813
11.496
11.9622
12.3759
12.7364
13.0404
13.2767
13.4187
13.4648
13.4105
13.2443
12.9555
12.53
12.0154
11.6769
11.668
11.7781
11.9465
12.056
12.0672
11.9857
11.8041
11.5469
11.2164
10.7342
9.83014
1096.29
1022.68
6.53948
7.36636
7.96816
8.52868
9.12601
9.73941
10.3323
10.8873
11.4055
11.8793
12.3053
12.6843
13.0169
13.2922
13.4917
13.6032
13.6253
13.5554
13.3783
13.0751
12.644
12.1691
11.822
11.7798
11.8516
11.9403
11.9734
11.9258
11.7789
11.5503
11.2446
10.788
9.9194
1096.61
1022.67
6.48155
7.2756
7.85907
8.41612
9.02364
9.65216
10.2565
10.815
11.3295
11.8038
12.2341
12.6225
12.9718
13.2747
13.5148
13.6736
13.7502
13.7413
13.6366
13.4163
13.0661
12.6138
12.1839
11.925
11.876
11.9258
11.9434
11.8952
11.7628
11.5552
11.2692
10.835
9.99555
1096.76
1022.68
6.43587
7.19223
7.75487
8.3078
8.92663
9.57264
10.1915
10.7572
11.2695
11.74
12.1696
12.5603
12.9167
13.2337
13.498
13.6889
13.8015
13.8326
13.7753
13.6103
13.3236
12.9224
12.4854
12.1492
11.9939
11.9575
11.9513
11.8969
11.7659
11.5628
11.2839
10.8549
10.0146
1096.76
1022.69
6.39081
7.10897
7.64876
8.195
8.8235
9.48722
10.1223
10.6983
11.2126
11.6777
12.1054
12.4965
12.8559
13.1808
13.4604
13.6777
13.8175
13.8767
13.8468
13.7154
13.4709
13.1191
12.7148
12.3629
12.149
12.0547
12.0013
11.9192
11.7812
11.5771
11.2972
10.8619
10.0084
1096.64
1022.7
6.35536
7.03505
7.55006
8.08719
8.72363
9.40541
10.059
10.6465
11.1652
11.6287
12.0535
12.4431
12.8032
13.1328
13.4241
13.6636
13.8266
13.9077
13.8984
13.7894
13.5727
13.257
12.8847
12.5374
12.2924
12.1529
12.0598
11.9526
11.8005
11.5905
11.3069
10.8633
9.98455
1096.54
1022.71
6.3228
6.96506
7.45414
7.97864
8.61903
9.31774
9.99172
10.5942
11.1217
11.5893
12.0141
12.403
12.7624
13.0925
13.3884
13.6419
13.8298
13.935
13.9477
13.8614
13.6712
13.3874
13.0432
12.7034
12.4354
12.2558
12.1248
11.9911
11.8243
11.6074
11.3192
10.8671
9.96963
1096.49
1022.73
6.29971
6.90635
7.36819
7.87598
8.51591
9.23086
9.92694
10.5474
11.0872
11.5621
11.9904
12.38
12.7382
13.0663
13.3642
13.6284
13.8349
13.9596
13.9928