/*--------------------------------*- C++ -*----------------------------------*\
| =========                 |                                                 |
| \\      /  F ield         | OpenFOAM: The Open Source CFD Toolbox           |
|  \\    /   O peration     | Version:  2.0.x                                 |
|   \\  /    A nd           | Web:      www.OpenFOAM.org                      |
|    \\/     M anipulation  |                                                 |
\*---------------------------------------------------------------------------*/
FoamFile
{
    version     2.0;
    format      ascii;
    class       surfaceScalarField;
    location    "550";
    object      phi;
}
// * * * * * * * * * * * * * * * * * * * * * * * * * * * * * * * * * * * * * //

dimensions      [1 0 -1 0 0 0 0];

internalField   nonuniform List<scalar> 
228225
(
-5.5946e-06
3.32493e-06
2.14699e-06
-1.25895e-05
3.46838e-06
3.52653e-06
-1.80972e-05
1.83137e-06
3.67629e-06
-2.11436e-05
-5.48744e-07
3.59515e-06
-2.12658e-05
-3.31616e-06
3.43838e-06
-1.93182e-05
-5.25817e-06
3.31061e-06
-1.60055e-05
-6.47965e-06
3.16696e-06
-1.18607e-05
-7.22462e-06
3.07982e-06
-7.15781e-06
-7.72262e-06
3.01972e-06
-2.13803e-06
-8.00093e-06
2.98117e-06
3.01522e-06
-8.11699e-06
2.96376e-06
8.17603e-06
-8.11942e-06
2.95863e-06
1.32706e-05
-8.05928e-06
2.96468e-06
1.81904e-05
-7.89382e-06
2.97412e-06
2.28966e-05
-7.68943e-06
2.98321e-06
2.73221e-05
-7.45261e-06
3.02712e-06
3.14149e-05
-7.16719e-06
3.07444e-06
3.51462e-05
-6.83634e-06
3.10495e-06
3.848e-05
-6.45966e-06
3.12593e-06
4.13966e-05
-6.05527e-06
3.13868e-06
4.38036e-05
-5.56451e-06
3.15746e-06
4.57426e-05
-5.08507e-06
3.14608e-06
4.70477e-05
-4.44811e-06
3.143e-06
4.7778e-05
-3.88544e-06
3.15508e-06
4.79449e-05
-3.34237e-06
3.17545e-06
4.74171e-05
-2.6798e-06
3.20759e-06
4.61817e-05
-1.98757e-06
3.22295e-06
4.41585e-05
-1.23457e-06
3.25772e-06
4.09576e-05
-9.70768e-08
3.298e-06
3.68947e-05
7.30368e-07
3.33244e-06
3.18182e-05
1.69581e-06
3.38065e-06
2.53882e-05
2.98966e-06
3.44023e-06
1.74412e-05
4.42011e-06
3.52683e-06
8.14809e-06
5.80052e-06
3.4924e-06
5.92729e-06
2.2208e-06
-2.12842e-07
2.10741e-06
1.4303e-06
-1.96784e-06
2.57312e-06
2.6502e-06
-3.40795e-06
2.51013e-07
3.0204e-06
-3.596e-06
-3.31914e-06
2.95838e-06
-2.43515e-06
-7.19444e-06
2.71737e-06
-2.4048e-07
-9.8948e-06
2.44191e-06
2.52908e-06
-1.14336e-05
2.18434e-06
5.62717e-06
-1.2346e-05
2.02329e-06
8.83695e-06
-1.28307e-05
1.89828e-06
1.20356e-05
-1.302e-05
1.82039e-06
1.51706e-05
-1.30353e-05
1.78329e-06
1.81472e-05
-1.28693e-05
1.77327e-06
2.09476e-05
-1.26418e-05
1.78207e-06
2.3574e-05
-1.2327e-05
1.80673e-06
2.59857e-05
-1.19291e-05
1.8279e-06
2.81534e-05
-1.14689e-05
1.84856e-06
3.00847e-05
-1.09515e-05
1.85294e-06
3.17677e-05
-1.03799e-05
1.86061e-06
3.31904e-05
-9.75468e-06
1.87222e-06
3.43272e-05
-9.07948e-06
1.88742e-06
3.52214e-05
-8.36579e-06
1.90703e-06
3.57136e-05
-7.53686e-06
1.95954e-06
3.59092e-05
-6.65748e-06
2.01383e-06
3.56933e-05
-5.74152e-06
2.07187e-06
3.50251e-05
-4.79322e-06
2.11908e-06
3.40018e-05
-3.83475e-06
2.17821e-06
3.25922e-05
-2.82712e-06
2.24913e-06
3.06981e-05
-1.67821e-06
2.33765e-06
2.80379e-05
9.90397e-08
2.46405e-06
2.5001e-05
1.17911e-06
2.5881e-06
2.12902e-05
2.67093e-06
2.73561e-06
1.65742e-05
4.82326e-06
2.88234e-06
1.0566e-05
7.43184e-06
2.99643e-06
4.14805e-06
9.34462e-06
2.87374e-06
8.30757e-06
1.76777e-06
1.08275e-06
4.78825e-08
9.76726e-07
3.62115e-06
-1.81054e-06
1.84519e-06
7.24245e-06
-5.42739e-06
2.05703e-06
1.1082e-05
-9.1476e-06
1.98888e-06
1.39797e-05
-1.19912e-05
1.89892e-06
1.60966e-05
-1.37582e-05
1.74653e-06
1.78666e-05
-1.4729e-05
1.52542e-06
1.93296e-05
-1.51935e-05
1.38442e-06
2.05528e-05
-1.53511e-05
1.29715e-06
2.16264e-05
-1.53303e-05
1.23668e-06
2.25619e-05
-1.5197e-05
1.22619e-06
2.33925e-05
-1.49577e-05
1.25777e-06
2.40931e-05
-1.46292e-05
1.28677e-06
2.46886e-05
-1.42373e-05
1.31482e-06
2.51911e-05
-1.37698e-05
1.33821e-06
2.56096e-05
-1.3229e-05
1.34158e-06
2.59256e-05
-1.26218e-05
1.35421e-06
2.61251e-05
-1.19529e-05
1.3735e-06
2.6194e-05
-1.12216e-05
1.39798e-06
2.61137e-05
-1.04254e-05
1.42623e-06
2.58707e-05
-9.57723e-06
1.4544e-06
2.55482e-05
-8.68452e-06
1.47018e-06
2.5087e-05
-7.69665e-06
1.50032e-06
2.44385e-05
-6.65148e-06
1.55841e-06
2.35221e-05
-5.51505e-06
1.63819e-06
2.23549e-05
-4.37555e-06
1.70789e-06
2.09795e-05
-3.25579e-06
1.804e-06
1.93384e-05
-1.95934e-06
1.92212e-06
1.75957e-05
-2.36361e-07
2.07804e-06
1.5684e-05
8.72604e-07
2.21806e-06
1.32299e-05
2.74134e-06
2.38352e-06
1.01085e-05
5.38947e-06
2.55505e-06
6.09664e-06
8.74819e-06
2.69542e-06
2.23736e-06
1.06911e-05
2.5126e-06
9.09057e-06
1.45437e-06
5.74478e-07
-1.27861e-06
7.51875e-07
3.10625e-06
-5.62486e-06
1.28241e-06
6.4032e-06
-1.0033e-05
1.30852e-06
9.40377e-06
-1.33259e-05
1.17768e-06
1.17869e-05
-1.52882e-05
9.13822e-07
1.3641e-05
-1.63223e-05
7.10056e-07
1.50409e-05
-1.68459e-05
7.1693e-07
1.62331e-05
-1.70835e-05
6.97721e-07
1.73114e-05
-1.71246e-05
6.95273e-07
1.83409e-05
-1.70544e-05
6.94536e-07
1.93023e-05
-1.68585e-05
7.00016e-07
2.02158e-05
-1.65566e-05
6.85438e-07
2.1059e-05
-1.61571e-05
6.84647e-07
2.17852e-05
-1.56614e-05
6.97904e-07
2.23734e-05
-1.50816e-05
7.23606e-07
2.28135e-05
-1.44278e-05
7.58769e-07
2.31003e-05
-1.37074e-05
7.98843e-07
2.32332e-05
-1.29267e-05
8.40842e-07
2.3218e-05
-1.20903e-05
8.83812e-07
2.30594e-05
-1.11957e-05
9.2888e-07
2.27347e-05
-1.02285e-05
9.75836e-07
2.21954e-05
-9.17633e-06
1.03114e-06
2.14687e-05
-8.07743e-06
1.1074e-06
2.05766e-05
-6.93525e-06
1.17587e-06
1.95429e-05
-5.72749e-06
1.24611e-06
1.8322e-05
-4.49551e-06
1.34084e-06
1.69673e-05
-3.34929e-06
1.44814e-06
1.54655e-05
-2.03721e-06
1.57964e-06
1.38376e-05
-3.55889e-07
1.74733e-06
1.19798e-05
8.31358e-07
1.89903e-06
9.92337e-06
2.70382e-06
2.09392e-06
7.33973e-06
5.68067e-06
2.29241e-06
4.16683e-06
9.5125e-06
2.40856e-06
1.33137e-06
1.13484e-05
2.17817e-06
9.28954e-06
1.1324e-06
8.22288e-07
-2.5433e-06
4.42262e-07
2.98318e-06
-8.39277e-06
6.06913e-07
5.43475e-06
-1.29922e-05
5.07551e-07
7.56522e-06
-1.58292e-05
3.72714e-07
9.3227e-06
-1.73372e-05
2.91491e-07
1.08843e-05
-1.81189e-05
2.34987e-07
1.2341e-05
-1.85056e-05
2.02869e-07
1.36897e-05
-1.86433e-05
2.11147e-07
1.49276e-05
-1.85879e-05
2.25287e-07
1.60027e-05
-1.83897e-05
2.60218e-07
1.69282e-05
-1.80634e-05
2.79338e-07
1.76897e-05
-1.76299e-05
3.11845e-07
1.82847e-05
-1.71043e-05
3.52192e-07
1.87051e-05
-1.64808e-05
3.98926e-07
1.89577e-05
-1.57837e-05
4.49485e-07
1.90532e-05
-1.50256e-05
5.02158e-07
1.90061e-05
-1.42109e-05
5.50487e-07
1.88286e-05
-1.3344e-05
5.94803e-07
1.85379e-05
-1.24347e-05
6.35001e-07
1.81545e-05
-1.14831e-05
6.70896e-07
1.7683e-05
-1.04649e-05
7.07817e-07
1.7123e-05
-9.36534e-06
7.48952e-07
1.65004e-05
-8.24195e-06
7.87116e-07
1.57917e-05
-7.06721e-06
8.40549e-07
1.50101e-05
-5.8442e-06
8.9826e-07
1.41628e-05
-4.62681e-06
9.78514e-07
1.32265e-05
-3.48755e-06
1.07452e-06
1.21798e-05
-2.18939e-06
1.19882e-06
1.09939e-05
-5.35572e-07
1.36545e-06
9.52382e-06
7.69089e-07
1.53228e-06
7.91815e-06
2.57053e-06
1.73885e-06
5.75986e-06
5.84833e-06
1.99052e-06
3.19545e-06
9.94504e-06
2.13177e-06
9.83264e-07
1.16393e-05
1.92112e-06
9.27918e-06
9.93615e-07
8.71486e-07
-3.73142e-06
3.16554e-07
2.60725e-06
-1.05353e-05
4.06739e-07
4.38014e-06
-1.51121e-05
3.4697e-07
5.93264e-06
-1.76591e-05
2.77438e-07
7.27447e-06
-1.88888e-05
2.09702e-07
8.43392e-06
-1.94537e-05
1.75337e-07
9.45638e-06
-1.96757e-05
1.47594e-07
1.03652e-05
-1.96802e-05
1.28011e-07
1.11807e-05
-1.95245e-05
1.21089e-07
1.18833e-05
-1.92211e-05
1.28717e-07
1.24689e-05
-1.88021e-05
1.53086e-07
1.29392e-05
-1.8282e-05
1.81805e-07
1.32979e-05
-1.76745e-05
2.11483e-07
1.35724e-05
-1.69939e-05
2.38609e-07
1.37776e-05
-1.62488e-05
2.59746e-07
1.39092e-05
-1.54445e-05
2.87338e-07
1.39666e-05
-1.45837e-05
3.1529e-07
1.39487e-05
-1.3669e-05
3.42864e-07
1.38498e-05
-1.27055e-05
3.6975e-07
1.36691e-05
-1.17008e-05
3.98278e-07
1.34219e-05
-1.06519e-05
4.34124e-07
1.31047e-05
-9.53959e-06
4.91327e-07
1.26902e-05
-8.37869e-06
5.51233e-07
1.21865e-05
-7.17841e-06
6.14847e-07
1.16178e-05
-5.95342e-06
6.77882e-07
1.09848e-05
-4.75089e-06
7.57007e-07
1.0275e-05
-3.62664e-06
8.48814e-07
9.52734e-06
-2.40552e-06
9.6374e-07
8.78065e-06
-9.01491e-07
1.11255e-06
7.57577e-06
7.06976e-07
1.26691e-06
6.22021e-06
2.47949e-06
1.44651e-06
4.38231e-06
5.99496e-06
1.69119e-06
2.31389e-06
1.01718e-05
1.84154e-06
6.31472e-07
1.17074e-05
1.61424e-06
9.10528e-06
8.05367e-07
6.82487e-07
-4.58908e-06
1.7511e-07
1.82945e-06
-1.18458e-05
1.63474e-07
2.89069e-06
-1.62527e-05
7.93333e-08
3.76633e-06
-1.85359e-05
1.09853e-09
4.58439e-06
-1.96491e-05
-5.77636e-08
5.39596e-06
-2.01792e-05
-8.61487e-08
6.2028e-06
-2.03792e-05
-1.03307e-07
6.98733e-06
-2.03563e-05
-1.08458e-07
7.72864e-06
-2.01631e-05
-1.02682e-07
8.42059e-06
-1.98239e-05
-8.91411e-08
9.05436e-06
-1.93674e-05
-6.84714e-08
9.62233e-06
-1.88094e-05
-4.0511e-08
1.01134e-05
-1.81596e-05
-5.95245e-09
1.05193e-05
-1.7433e-05
3.31188e-08
1.08371e-05
-1.66411e-05
7.45039e-08
1.10777e-05
-1.57899e-05
1.04768e-07
1.12378e-05
-1.48821e-05
1.38299e-07
1.13153e-05
-1.39204e-05
1.73785e-07
1.13059e-05
-1.29046e-05
2.08433e-07
1.12038e-05
-1.18416e-05
2.42898e-07
1.10154e-05
-1.07415e-05
2.7795e-07
1.0764e-05
-9.60499e-06
3.16735e-07
1.04513e-05
-8.42639e-06
3.60373e-07
1.0083e-05
-7.2189e-06
4.08754e-07
9.67941e-06
-6.00722e-06
4.57272e-07
9.23339e-06
-4.82577e-06
5.20832e-07
8.70596e-06
-3.69567e-06
5.9637e-07
8.14456e-06
-2.53349e-06
6.89277e-07
7.56221e-06
-1.12662e-06
8.07367e-07
6.53802e-06
7.69283e-07
9.61763e-07
5.28096e-06
2.60942e-06
1.12698e-06
3.67084e-06
6.22875e-06
1.37621e-06
1.914e-06
1.03477e-05
1.58083e-06
4.82103e-07
1.17177e-05
1.4214e-06
8.91675e-06
6.70628e-07
4.4125e-07
-5.15928e-06
1.28915e-07
1.09935e-06
-1.2619e-05
1.15037e-07
1.71424e-06
-1.6929e-05
6.13692e-08
2.25932e-06
-1.91042e-05
2.31973e-08
2.78503e-06
-2.01641e-05
-1.07047e-08
3.31464e-06
-2.06693e-05
-3.95125e-08
3.84937e-06
-2.08453e-05
-6.86569e-08
4.38416e-06
-2.07993e-05
-9.18018e-08
4.90701e-06
-2.05794e-05
-1.06604e-07
5.41012e-06
-2.02149e-05
-1.12163e-07
5.88507e-06
-1.97335e-05
-1.08868e-07
6.3257e-06
-1.91523e-05
-9.78208e-08
6.72975e-06
-1.84835e-05
-8.02429e-08
7.09068e-06
-1.77362e-05
-5.77398e-08
7.4015e-06
-1.69193e-05
-3.25836e-08
7.65575e-06
-1.60413e-05
-2.832e-09
7.8557e-06
-1.51085e-05
2.6408e-08
8.00711e-06
-1.41258e-05
5.39529e-08
8.11331e-06
-1.3094e-05
8.31552e-08
8.17072e-06
-1.20138e-05
1.14737e-07
8.1667e-06
-1.08871e-05
1.496e-07
8.09661e-06
-9.71817e-06
1.83199e-07
7.97024e-06
-8.51789e-06
2.17789e-07
7.80034e-06
-7.30356e-06
2.5447e-07
7.60095e-06
-6.09889e-06
2.90971e-07
7.35734e-06
-4.92287e-06
3.4061e-07
7.03649e-06
-3.77745e-06
4.02523e-07
6.63037e-06
-2.60629e-06
4.7878e-07
6.09087e-06
-1.16712e-06
5.7981e-07
5.34422e-06
7.90658e-07
7.25073e-07
4.2612e-06
2.79489e-06
8.9734e-07
2.86235e-06
6.48221e-06
1.1452e-06
1.44621e-06
1.04564e-05
1.30719e-06
2.79225e-07
1.16885e-05
1.19596e-06
8.64312e-06
5.5285e-07
1.74915e-07
-5.4008e-06
6.65566e-08
4.73317e-07
-1.29128e-05
-4.60942e-09
8.06387e-07
-1.71751e-05
-8.6921e-08
1.17672e-06
-1.93418e-05
-1.32761e-07
1.55329e-06
-2.03874e-05
-1.53355e-07
1.93696e-06
-2.08897e-05
-1.63333e-07
2.34741e-06
-2.10836e-05
-1.72161e-07
2.78619e-06
-2.10586e-05
-1.79505e-07
3.25293e-06
-2.08623e-05
-1.83907e-07
3.73807e-06
-2.05165e-05
-1.83521e-07
4.22822e-06
-2.00463e-05
-1.77407e-07
4.70776e-06
-1.9467e-05
-1.64873e-07
5.16092e-06
-1.8791e-05
-1.45722e-07
5.57475e-06
-1.80298e-05
-1.20307e-07
5.93854e-06
-1.71941e-05
-8.90558e-08
6.24636e-06
-1.62934e-05
-5.57752e-08
6.49739e-06
-1.53357e-05
-2.38754e-08
6.69123e-06
-1.43271e-05
7.4524e-09
6.82882e-06
-1.32703e-05
3.86901e-08
6.91242e-06
-1.21676e-05
7.01939e-08
6.94453e-06
-1.10216e-05
1.0232e-07
6.92817e-06
-9.83674e-06
1.34866e-07
6.86762e-06
-8.6245e-06
1.67091e-07
6.7671e-06
-7.40094e-06
1.9782e-07
6.63001e-06
-6.18642e-06
2.24531e-07
6.4394e-06
-4.9919e-06
2.59556e-07
6.1638e-06
-3.80278e-06
3.00833e-07
5.74329e-06
-2.53792e-06
3.52009e-07
5.12754e-06
-9.73614e-07
4.2208e-07
4.52768e-06
8.66644e-07
5.23685e-07
3.62362e-06
3.04371e-06
6.5503e-07
2.42334e-06
6.81546e-06
8.66863e-07
1.21664e-06
1.06029e-05
1.06008e-06
2.59024e-07
1.17188e-05
9.26985e-07
8.48402e-06
4.18117e-07
1.05984e-07
-5.54945e-06
4.26179e-08
3.40154e-07
-1.31148e-05
-3.22131e-08
6.63912e-07
-1.73969e-05
-1.01973e-07
1.02161e-06
-1.95699e-05
-1.296e-07
1.39471e-06
-2.06232e-05
-1.37263e-07
1.78301e-06
-2.11328e-05
-1.45155e-07
2.18926e-06
-2.13326e-05
-1.57255e-07
2.6156e-06
-2.13138e-05
-1.71094e-07
3.0611e-06
-2.11243e-05
-1.8349e-07
3.52044e-06
-2.07838e-05
-1.92032e-07
3.9874e-06
-2.0318e-05
-1.95259e-07
4.45426e-06
-1.97417e-05
-1.92129e-07
4.91172e-06
-1.90663e-05
-1.82137e-07
5.34913e-06
-1.83019e-05
-1.65346e-07
5.75555e-06
-1.74583e-05
-1.4229e-07
6.12191e-06
-1.6545e-05
-1.14763e-07
6.43816e-06
-1.55688e-05
-8.31793e-08
6.69543e-06
-1.45357e-05
-4.8672e-08
6.88808e-06
-1.34505e-05
-1.25681e-08
7.01549e-06
-1.23196e-05
2.44879e-08
7.07853e-06
-1.11467e-05
6.195e-08
7.07992e-06
-9.93795e-06
9.97539e-08
7.02064e-06
-8.70233e-06
1.37037e-07
6.90262e-06
-7.45492e-06
1.71925e-07
6.72924e-06
-6.21359e-06
2.00463e-07
6.49118e-06
-4.98565e-06
2.31707e-07
6.15745e-06
-3.73841e-06
2.69229e-07
5.68005e-06
-2.37765e-06
3.16972e-07
5.02156e-06
-6.92437e-07
3.77141e-07
4.43465e-06
9.93798e-07
4.59557e-07
3.55056e-06
3.35323e-06
5.74335e-07
2.44154e-06
7.16936e-06
7.54904e-07
1.29556e-06
1.08181e-05
9.30552e-07
3.25928e-07
1.18446e-05
8.43666e-07
8.44172e-06
3.68216e-07
4.9499e-08
-5.59195e-06
-7.07095e-09
2.95034e-07
-1.32249e-05
-1.35448e-07
6.94282e-07
-1.75667e-05
-2.29489e-07
1.15552e-06
-1.9772e-05
-2.59168e-07
1.62979e-06
-2.08464e-05
-2.51093e-07
2.11018e-06
-2.13749e-05
-2.38381e-07
2.60071e-06
-2.15936e-05
-2.29539e-07
3.1057e-06
-2.15922e-05
-2.26641e-07
3.63386e-06
-2.14245e-05
-2.28031e-07
4.17762e-06
-2.10971e-05
-2.30552e-07
4.72999e-06
-2.0639e-05
-2.3146e-07
5.28097e-06
-2.00638e-05
-2.28945e-07
5.81769e-06
-1.93817e-05
-2.2138e-07
6.3257e-06
-1.86022e-05
-2.07721e-07
6.79286e-06
-1.77376e-05
-1.87887e-07
7.20912e-06
-1.67989e-05
-1.62446e-07
7.55603e-06
-1.57846e-05
-1.31227e-07
7.82183e-06
-1.47063e-05
-9.52345e-08
8.0048e-06
-1.35739e-05
-5.96004e-08
8.10124e-06
-1.23998e-05
-1.6321e-08
8.11874e-06
-1.11949e-05
3.06464e-08
8.06276e-06
-9.9611e-06
7.90791e-08
7.93596e-06
-8.69898e-06
1.23389e-07
7.73599e-06
-7.41698e-06
1.61939e-07
7.45782e-06
-6.13026e-06
1.94766e-07
7.08952e-06
-4.84837e-06
2.30909e-07
6.62303e-06
-3.54423e-06
2.72208e-07
6.05279e-06
-2.12304e-06
3.15475e-07
5.40283e-06
-4.03939e-07
3.61298e-07
4.72401e-06
1.25215e-06
4.20266e-07
3.70315e-06
3.87407e-06
4.99783e-07
2.55618e-06
7.69047e-06
6.25647e-07
1.42328e-06
1.11879e-05
7.62912e-07
4.25534e-07
1.21348e-05
7.07274e-07
8.54328e-06
3.23978e-07
1.46349e-07
-5.70419e-06
-3.41782e-08
5.66596e-07
-1.34797e-05
-1.65572e-07
1.16175e-06
-1.79121e-05
-2.49863e-07
1.82348e-06
-2.01575e-05
-2.76233e-07
2.48998e-06
-2.12411e-05
-2.71885e-07
3.14185e-06
-2.1766e-05
-2.60729e-07
3.7767e-06
-2.19766e-05
-2.51859e-07
4.39747e-06
-2.19648e-05
-2.48226e-07
5.01072e-06
-2.17882e-05
-2.49516e-07
5.61467e-06
-2.14471e-05
-2.53966e-07
6.20653e-06
-2.09715e-05
-2.593e-07
6.782e-06
-2.03752e-05
-2.64101e-07
7.33299e-06
-1.9666e-05
-2.66673e-07
7.84735e-06
-1.88512e-05
-2.6541e-07
8.30889e-06
-1.79391e-05
-2.59992e-07
8.69803e-06
-1.69382e-05
-2.49855e-07
9.00952e-06
-1.58683e-05
-2.27757e-07
9.23648e-06
-1.47387e-05
-1.94579e-07
9.36058e-06
-1.35541e-05
-1.43908e-07
9.38434e-06
-1.23309e-05
-9.26709e-08
9.31688e-06
-1.10869e-05
-4.04963e-08
9.17052e-06
-9.82607e-06
1.13119e-08
8.95035e-06
-8.54272e-06
6.38933e-08
8.65295e-06
-7.23573e-06
1.16135e-07
8.27352e-06
-5.91575e-06
1.6491e-07
7.80401e-06
-4.59228e-06
2.13398e-07
7.23868e-06
-3.23916e-06
2.60233e-07
6.5493e-06
-1.73843e-06
3.04756e-07
5.75634e-06
4.12511e-08
3.47746e-07
4.90602e-06
1.70457e-06
3.97882e-07
3.79517e-06
4.52736e-06
4.57546e-07
2.61386e-06
8.32657e-06
5.45205e-07
1.47912e-06
1.1678e-05
6.44659e-07
4.72215e-07
1.25419e-05
5.99854e-07
8.73893e-06
2.76557e-07
2.3699e-07
-5.86751e-06
-7.37453e-08
8.37933e-07
-1.38485e-05
-2.32126e-07
1.61356e-06
-1.83616e-05
-3.26168e-07
2.43225e-06
-2.06211e-05
-3.55163e-07
3.23857e-06
-2.16999e-05
-3.47457e-07
4.01447e-06
-2.22149e-05
-3.27063e-07
4.75773e-06
-2.24121e-05
-3.07807e-07
5.47169e-06
-2.23852e-05
-2.93535e-07
6.14948e-06
-2.21807e-05
-2.85345e-07
6.79739e-06
-2.18119e-05
-2.83097e-07
7.41268e-06
-2.13021e-05
-2.84752e-07
7.99513e-06
-2.06686e-05
-2.89062e-07
8.5331e-06
-1.99099e-05
-2.9413e-07
9.01135e-06
-1.90319e-05
-2.97504e-07
9.41777e-06
-1.80487e-05
-2.96859e-07
9.74222e-06
-1.69812e-05
-2.81416e-07
9.98777e-06
-1.58531e-05
-2.6077e-07
1.01501e-05
-1.4665e-05
-2.36049e-07
1.02156e-05
-1.34103e-05
-2.09324e-07
1.01639e-05
-1.21033e-05
-1.75922e-07
9.99136e-06
-1.07795e-05
-1.34906e-07
9.71497e-06
-9.46313e-06
-8.65733e-08
9.3619e-06
-8.15688e-06
-3.28076e-08
8.95734e-06
-6.85381e-06
2.26133e-08
8.50756e-06
-5.54617e-06
8.01536e-08
7.99546e-06
-4.21904e-06
1.38807e-07
7.39132e-06
-2.83165e-06
1.9656e-07
6.65813e-06
-1.25841e-06
2.53085e-07
5.80194e-06
5.90931e-07
3.06407e-07
4.82138e-06
2.32674e-06
3.58252e-07
3.70774e-06
5.23096e-06
4.09902e-07
2.53547e-06
9.02451e-06
4.74216e-07
1.42034e-06
1.22464e-05
5.4653e-07
4.38749e-07
1.30174e-05
5.05973e-07
8.94959e-06
2.281e-07
3.44602e-07
-6.11821e-06
-9.39441e-08
1.07177e-06
-1.43319e-05
-2.43842e-07
1.9395e-06
-1.89021e-05
-3.27148e-07
2.82271e-06
-2.11447e-05
-3.59649e-07
3.67938e-06
-2.21944e-05
-3.62191e-07
4.49624e-06
-2.26798e-05
-3.51972e-07
5.26773e-06
-2.28449e-05
-3.38652e-07
5.99594e-06
-2.27871e-05
-3.26297e-07
6.66992e-06
-2.25365e-05
-3.18162e-07
7.29425e-06
-2.21222e-05
-3.13982e-07
7.86409e-06
-2.1558e-05
-3.13939e-07
8.36584e-06
-2.08522e-05
-3.1809e-07
8.79601e-06
-2.00159e-05
-3.24172e-07
9.16864e-06
-1.90754e-05
-3.29124e-07
9.48926e-06
-1.80416e-05
-3.27662e-07
9.75989e-06
-1.69235e-05
-3.2832e-07
9.96224e-06
-1.5727e-05
-3.28449e-07
1.00794e-05
-1.44587e-05
-3.23447e-07
1.00974e-05
-1.31175e-05
-3.10695e-07
1e-05
-1.17173e-05
-2.8856e-07
9.78131e-06
-1.03043e-05
-2.565e-07
9.45249e-06
-8.91964e-06
-2.14606e-07
9.0358e-06
-7.57567e-06
-1.64449e-07
8.56078e-06
-6.26926e-06
-1.09449e-07
8.0426e-06
-4.97905e-06
-4.884e-08
7.46966e-06
-3.66116e-06
1.51822e-08
6.80498e-06
-2.24822e-06
8.13934e-08
6.05987e-06
-6.626e-07
1.49485e-07
5.42331e-06
1.00902e-06
2.18677e-07
4.48388e-06
2.98592e-06
2.80508e-07
3.3848e-06
5.99089e-06
3.39429e-07
2.23554e-06
9.77618e-06
3.97816e-07
1.18564e-06
1.28423e-05
4.54334e-07
3.04229e-07
1.34831e-05
4.16036e-07
9.08754e-06
1.66287e-07
3.65616e-07
-6.37145e-06
-1.12388e-07
1.10049e-06
-1.48026e-05
-2.64159e-07
1.94514e-06
-1.93999e-05
-3.4693e-07
2.78803e-06
-2.16065e-05
-3.81089e-07
3.6008e-06
-2.26202e-05
-3.86972e-07
4.37556e-06
-2.30738e-05
-3.80689e-07
5.10657e-06
-2.32058e-05
-3.7019e-07
5.79129e-06
-2.3113e-05
-3.58816e-07
6.42381e-06
-2.28189e-05
-3.5005e-07
7.0015e-06
-2.23557e-05
-3.44208e-07
7.51615e-06
-2.17308e-05
-3.4185e-07
7.95392e-06
-2.09473e-05
-3.42701e-07
8.33006e-06
-2.00478e-05
-3.44193e-07
8.64672e-06
-1.90431e-05
-3.48994e-07
8.90187e-06
-1.79392e-05
-3.57506e-07
9.08475e-06
-1.67395e-05
-3.66906e-07
9.18978e-06
-1.54578e-05
-3.74144e-07
9.21471e-06
-1.41063e-05
-3.77304e-07
9.15837e-06
-1.26867e-05
-3.74468e-07
9.0102e-06
-1.12053e-05
-3.63751e-07
8.76509e-06
-9.71532e-06
-3.43781e-07
8.43284e-06
-8.27322e-06
-3.14144e-07
8.0267e-06
-6.8942e-06
-2.75289e-07
7.56173e-06
-5.57478e-06
-2.29484e-07
7.0508e-06
-4.29227e-06
-1.75812e-07
6.50222e-06
-2.99744e-06
-1.15112e-07
5.89874e-06
-1.59791e-06
-4.67843e-08
5.2648e-06
-5.72805e-08
2.86674e-08
4.74115e-06
1.43341e-06
9.93141e-08
3.88409e-06
3.66803e-06
1.75021e-07
2.8443e-06
6.78267e-06
2.48082e-07
1.77372e-06
1.05343e-05
3.12551e-07
8.61602e-07
1.33918e-05
3.62724e-07
1.55011e-07
1.38626e-05
3.27224e-07
9.12367e-06
1.18889e-07
3.64992e-07
-6.61851e-06
-1.17891e-07
1.06042e-06
-1.52413e-05
-2.5671e-07
1.84781e-06
-1.98575e-05
-3.29772e-07
2.62912e-06
-2.20228e-05
-3.64901e-07
3.38124e-06
-2.2994e-05
-3.78306e-07
4.098e-06
-2.34087e-05
-3.81853e-07
4.77216e-06
-2.34994e-05
-3.80491e-07
5.39791e-06
-2.33624e-05
-3.76309e-07
5.96331e-06
-2.30115e-05
-3.72845e-07
6.45556e-06
-2.24775e-05
-3.70398e-07
6.87053e-06
-2.17754e-05
-3.70294e-07
7.2298e-06
-2.09344e-05
-3.72096e-07
7.52956e-06
-1.99692e-05
-3.78279e-07
7.75486e-06
-1.88814e-05
-3.86917e-07
7.89608e-06
-1.76837e-05
-3.96697e-07
7.95737e-06
-1.63945e-05
-4.06224e-07
7.94579e-06
-1.50318e-05
-4.14407e-07
7.86865e-06
-1.3609e-05
-4.20072e-07
7.73305e-06
-1.21292e-05
-4.21774e-07
7.53787e-06
-1.05923e-05
-4.17685e-07
7.27707e-06
-9.04812e-06
-4.06288e-07
6.95855e-06
-7.56804e-06
-3.86532e-07
6.59017e-06
-6.1676e-06
-3.58081e-07
6.17743e-06
-4.83957e-06
-3.22313e-07
5.72541e-06
-3.56204e-06
-2.78034e-07
5.25154e-06
-2.29758e-06
-2.25783e-07
4.77185e-06
-9.53458e-07
-1.64531e-07
4.28927e-06
5.19278e-07
-9.36953e-08
3.71653e-06
2.02814e-06
-2.16177e-08
2.99963e-06
4.32297e-06
6.24027e-08
2.12901e-06
7.50553e-06
1.48189e-07
1.23937e-06
1.12019e-05
2.22373e-07
5.31712e-07
1.38274e-05
2.72452e-07
3.23775e-08
1.41183e-05
2.44162e-07
9.08144e-06
7.46227e-08
3.29706e-07
-6.82847e-06
-1.19677e-07
9.61302e-07
-1.56242e-05
-2.48578e-07
1.67977e-06
-2.02604e-05
-3.1553e-07
2.39561e-06
-2.23907e-05
-3.47951e-07
3.0882e-06
-2.33241e-05
-3.62487e-07
3.7513e-06
-2.37017e-05
-3.70047e-07
4.37624e-06
-2.37501e-05
-3.74181e-07
4.9545e-06
-2.35649e-05
-3.75737e-07
5.47209e-06
-2.31514e-05
-3.77663e-07
5.9138e-06
-2.25393e-05
-3.79888e-07
6.28072e-06
-2.17581e-05
-3.84176e-07
6.56223e-06
-2.08268e-05
-3.89055e-07
6.73914e-06
-1.97507e-05
-3.95391e-07
6.81401e-06
-1.85535e-05
-4.0275e-07
6.80173e-06
-1.72606e-05
-4.10798e-07
6.72089e-06
-1.58944e-05
-4.19174e-07
6.58872e-06
-1.44722e-05
-4.27357e-07
6.41895e-06
-1.30045e-05
-4.34629e-07
6.22274e-06
-1.14931e-05
-4.39882e-07
6.00695e-06
-9.93503e-06
-4.41442e-07
5.76022e-06
-8.36372e-06
-4.3759e-07
5.48302e-06
-6.86374e-06
-4.27019e-07
5.17698e-06
-5.45283e-06
-4.08636e-07
4.84375e-06
-4.12351e-06
-3.82728e-07
4.48357e-06
-2.8543e-06
-3.47461e-07
4.10293e-06
-1.61389e-06
-3.02932e-07
3.72575e-06
-3.28156e-07
-2.47994e-07
3.41232e-06
1.01702e-06
-1.84163e-07
2.93889e-06
2.61725e-06
-1.15469e-07
2.35696e-06
4.93486e-06
-2.97204e-08
1.67432e-06
8.12404e-06
6.43807e-08
9.76328e-07
1.17525e-05
1.47627e-07
4.16342e-07
1.41876e-05
2.00099e-07
2.30142e-08
1.43339e-05
1.78013e-07
9.06918e-06
3.52851e-08
2.9531e-07
-7.00722e-06
-1.16489e-07
8.667e-07
-1.59633e-05
-2.32254e-07
1.52751e-06
-2.06306e-05
-2.90576e-07
2.18958e-06
-2.27324e-05
-3.20309e-07
2.83032e-06
-2.36288e-05
-3.35997e-07
3.443e-06
-2.39673e-05
-3.47131e-07
4.018e-06
-2.39687e-05
-3.56395e-07
4.54357e-06
-2.37263e-05
-3.64116e-07
5.00397e-06
-2.32387e-05
-3.73055e-07
5.38425e-06
-2.25365e-05
-3.83063e-07
5.67229e-06
-2.16539e-05
-3.92145e-07
5.84317e-06
-2.05955e-05
-4.02109e-07
5.89757e-06
-1.9393e-05
-4.12037e-07
5.85167e-06
-1.80861e-05
-4.21396e-07
5.73209e-06
-1.67111e-05
-4.29859e-07
5.5676e-06
-1.52924e-05
-4.37378e-07
5.38222e-06
-1.38426e-05
-4.44091e-07
5.19244e-06
-1.23645e-05
-4.5011e-07
5.00848e-06
-1.08539e-05
-4.55141e-07
4.83582e-06
-9.30399e-06
-4.58278e-07
4.66114e-06
-7.7308e-06
-4.58125e-07
4.47693e-06
-6.22584e-06
-4.53573e-07
4.27908e-06
-4.81162e-06
-4.43232e-07
4.06741e-06
-3.4849e-06
-4.2681e-07
3.84064e-06
-2.22507e-06
-4.02308e-07
3.59382e-06
-9.9751e-07
-3.69391e-07
3.32855e-06
2.64256e-07
-3.26961e-07
3.08727e-06
1.53525e-06
-2.76724e-07
2.66677e-06
3.24911e-06
-2.11062e-07
2.13056e-06
5.59749e-06
-1.26077e-07
1.52024e-06
8.76028e-06
-2.5602e-08
9.0678e-07
1.22961e-05
7.00941e-08
4.08027e-07
1.4554e-05
1.32656e-07
4.48122e-08
1.45713e-05
1.2627e-07
9.09265e-06
2.1348e-08
2.63779e-07
-7.15677e-06
-1.14143e-07
8.11761e-07
-1.62909e-05
-2.20383e-07
1.46131e-06
-2.10076e-05
-2.72517e-07
2.11677e-06
-2.30887e-05
-2.99172e-07
2.7499e-06
-2.39483e-05
-3.13612e-07
3.35195e-06
-2.42443e-05
-3.25024e-07
3.91593e-06
-2.41966e-05
-3.36114e-07
4.41765e-06
-2.38805e-05
-3.47516e-07
4.8521e-06
-2.33116e-05
-3.6152e-07
5.19155e-06
-2.24984e-05
-3.77494e-07
5.40494e-06
-2.14731e-05
-3.94186e-07
5.48603e-06
-2.02656e-05
-4.10962e-07
5.44556e-06
-1.89262e-05
-4.2626e-07
5.31091e-06
-1.75128e-05
-4.38595e-07
5.11775e-06
-1.60705e-05
-4.47288e-07
4.8999e-06
-1.46218e-05
-4.52691e-07
4.68297e-06
-1.31698e-05
-4.5584e-07
4.48265e-06
-1.17062e-05
-4.57917e-07
4.30658e-06
-1.0218e-05
-4.59698e-07
4.15732e-06
-8.69342e-06
-4.61214e-07
4.02742e-06
-7.13913e-06
-4.6168e-07
3.90006e-06
-5.63802e-06
-4.60361e-07
3.76653e-06
-4.22231e-06
-4.55687e-07
3.62675e-06
-2.8983e-06
-4.46713e-07
3.48246e-06
-1.64948e-06
-4.3118e-07
3.32368e-06
-4.30195e-07
-4.08416e-07
3.18041e-06
7.84687e-07
-3.77017e-07
2.90767e-06
2.14566e-06
-3.37495e-07
2.51346e-06
3.92631e-06
-2.82763e-07
1.99982e-06
6.31955e-06
-2.08155e-07
1.40523e-06
9.46867e-06
-1.13553e-07
8.26856e-07
1.28902e-05
-1.55219e-08
3.7769e-07
1.49497e-05
5.37099e-08
5.00996e-08
1.4834e-05
6.51882e-08
9.14832e-06
-5.56188e-09
2.80982e-07
-7.32759e-06
-1.10035e-07
8.47068e-07
-1.66569e-05
-2.00016e-07
1.51096e-06
-2.14278e-05
-2.436e-07
2.18112e-06
-2.34888e-05
-2.70008e-07
2.82741e-06
-2.43085e-05
-2.86088e-07
3.4366e-06
-2.45539e-05
-2.9951e-07
3.99881e-06
-2.44466e-05
-3.12102e-07
4.48334e-06
-2.40373e-05
-3.27689e-07
4.87252e-06
-2.33551e-05
-3.45617e-07
5.16415e-06
-2.24201e-05
-3.69857e-07
5.33075e-06
-2.12432e-05
-3.96478e-07
5.36328e-06
-1.98745e-05
-4.23576e-07
5.27668e-06
-1.83916e-05
-4.47971e-07
5.10374e-06
-1.6873e-05
-4.66756e-07
4.88319e-06
-1.53714e-05
-4.78513e-07
4.64909e-06
-1.39041e-05
-4.83594e-07
4.42577e-06
-1.24628e-05
-4.83589e-07
4.2278e-06
-1.10276e-05
-4.80561e-07
4.06237e-06
-9.57616e-06
-4.76354e-07
3.93221e-06
-8.09105e-06
-4.72137e-07
3.83375e-06
-6.57232e-06
-4.68264e-07
3.74146e-06
-5.08055e-06
-4.6509e-07
3.63976e-06
-3.65907e-06
-4.61438e-07
3.52204e-06
-2.32442e-06
-4.56069e-07
3.38704e-06
-1.06793e-06
-4.46457e-07
3.22998e-06
1.57407e-07
-4.30449e-07
3.07899e-06
1.34333e-06
-4.07552e-07
2.79473e-06
2.80508e-06
-3.75021e-07
2.39425e-06
4.65574e-06
-3.28784e-07
1.88042e-06
7.0979e-06
-2.64343e-07
1.29443e-06
1.02348e-05
-1.79962e-07
7.51672e-07
1.35218e-05
-8.87138e-08
3.51866e-07
1.53707e-05
-2.11264e-08
5.77842e-08
1.51254e-05
2.92015e-09
9.23569e-06
-2.95723e-08
3.14204e-07
-7.53467e-06
-1.06885e-07
8.91746e-07
-1.70539e-05
-1.804e-07
1.53367e-06
-2.18545e-05
-2.15115e-07
2.17319e-06
-2.38872e-05
-2.41005e-07
2.79094e-06
-2.46675e-05
-2.58651e-07
3.37336e-06
-2.48623e-05
-2.73965e-07
3.90425e-06
-2.46887e-05
-2.88789e-07
4.35851e-06
-2.41838e-05
-3.07655e-07
4.70884e-06
-2.33732e-05
-3.32196e-07
4.94954e-06
-2.22998e-05
-3.60948e-07
5.0644e-06
-2.0963e-05
-3.94937e-07
5.05143e-06
-1.94306e-05
-4.30884e-07
4.93107e-06
-1.78065e-05
-4.64544e-07
4.73997e-06
-1.61902e-05
-4.91648e-07
4.51702e-06
-1.46387e-05
-5.09647e-07
4.29293e-06
-1.31616e-05
-5.18295e-07
4.08725e-06
-1.1738e-05
-5.19059e-07
3.91058e-06
-1.03366e-05
-5.14216e-07
3.76804e-06
-8.92739e-06
-5.06124e-07
3.66145e-06
-7.48762e-06
-4.9674e-07
3.58665e-06
-6.01e-06
-4.8741e-07
3.51775e-06
-4.53202e-06
-4.79529e-07
3.43627e-06
-3.10426e-06
-4.73214e-07
3.33132e-06
-1.75166e-06
-4.67702e-07
3.20556e-06
-4.81501e-07
-4.6055e-07
3.0853e-06
7.26762e-07
-4.48979e-07
2.8674e-06
1.99313e-06
-4.31771e-07
2.56405e-06
3.51444e-06
-4.05845e-07
2.16532e-06
5.42175e-06
-3.67087e-07
1.66884e-06
7.90551e-06
-3.10933e-07
1.11942e-06
1.10196e-05
-2.35172e-07
6.35903e-07
1.41562e-05
-1.50673e-07
2.93422e-07
1.57995e-05
-8.60677e-08
3.92036e-08
1.54325e-05
-5.26175e-08
9.3284e-06
-5.35042e-08
2.84955e-07
-7.7227e-06
-9.6536e-08
7.65129e-07
-1.73837e-05
-1.50143e-07
1.27043e-06
-2.21836e-05
-1.76038e-07
1.76678e-06
-2.418e-05
-2.03397e-07
2.24992e-06
-2.4925e-05
-2.25491e-07
2.7112e-06
-2.50781e-05
-2.45337e-07
3.13342e-06
-2.48466e-05
-2.64131e-07
3.50108e-06
-2.42648e-05
-2.86552e-07
3.80035e-06
-2.33581e-05
-3.1424e-07
3.9903e-06
-2.21431e-05
-3.46482e-07
4.0605e-06
-2.06478e-05
-3.853e-07
4.01886e-06
-1.89605e-05
-4.2831e-07
3.89299e-06
-1.72099e-05
-4.7065e-07
3.72003e-06
-1.55102e-05
-5.06882e-07
3.53408e-06
-1.39193e-05
-5.33316e-07
3.35899e-06
-1.24375e-05
-5.48864e-07
3.20772e-06
-1.10322e-05
-5.54436e-07
3.08557e-06
-9.66236e-06
-5.51978e-07
2.99416e-06
-8.29206e-06
-5.43795e-07
2.9335e-06
-6.89479e-06
-5.32038e-07
2.90054e-06
-5.45835e-06
-5.18545e-07
2.87507e-06
-4.0011e-06
-5.05321e-07
2.8427e-06
-2.5778e-06
-4.9396e-07
2.79292e-06
-1.217e-06
-4.84745e-07
2.72539e-06
6.21862e-08
-4.76035e-07
2.65197e-06
1.26587e-06
-4.65563e-07
2.46927e-06
2.62719e-06
-4.51216e-07
2.19552e-06
4.21787e-06
-4.29528e-07
1.82822e-06
6.18585e-06
-3.96606e-07
1.37397e-06
8.70747e-06
-3.47497e-07
8.87087e-07
1.1786e-05
-2.79371e-07
4.82382e-07
1.47639e-05
-2.02842e-07
2.07707e-07
1.62168e-05
-1.42518e-07
8.03421e-09
1.57346e-05
-1.02108e-07
9.41154e-06
-7.50912e-08
1.64349e-07
-7.80073e-06
-8.58477e-08
4.53359e-07
-1.7551e-05
-1.2138e-07
7.67042e-07
-2.2362e-05
-1.35036e-07
1.08615e-06
-2.43401e-05
-1.58836e-07
1.41073e-06
-2.50666e-05
-1.82818e-07
1.73667e-06
-2.51973e-05
-2.06575e-07
2.05015e-06
-2.49304e-05
-2.29528e-07
2.33742e-06
-2.42978e-05
-2.54139e-07
2.57732e-06
-2.33176e-05
-2.80249e-07
2.74219e-06
-2.19886e-05
-3.19197e-07
2.81639e-06
-2.03589e-05
-3.62904e-07
2.80727e-06
-1.85406e-05
-4.10585e-07
2.73563e-06
-1.66797e-05
-4.5838e-07
2.62751e-06
-1.49006e-05
-5.01276e-07
2.50795e-06
-1.32643e-05
-5.35305e-07
2.39627e-06
-1.17669e-05
-5.58699e-07
2.30413e-06
-1.03682e-05
-5.71608e-07
2.23666e-06
-9.01941e-06
-5.75299e-07
2.19506e-06
-7.6787e-06
-5.71591e-07
2.17838e-06
-6.3156e-06
-5.6233e-07
2.18338e-06
-4.91388e-06
-5.49298e-07
2.19765e-06
-3.48082e-06
-5.34362e-07
2.21094e-06
-2.07066e-06
-5.20256e-07
2.2191e-06
-7.16891e-07
-5.08114e-07
2.22983e-06
5.48863e-07
-4.97243e-07