/*--------------------------------*- C++ -*----------------------------------*\
| =========                 |                                                 |
| \\      /  F ield         | OpenFOAM: The Open Source CFD Toolbox           |
|  \\    /   O peration     | Version:  2.0.x                                 |
|   \\  /    A nd           | Web:      www.OpenFOAM.org                      |
|    \\/     M anipulation  |                                                 |
\*---------------------------------------------------------------------------*/
FoamFile
{
    version     2.0;
    format      ascii;
    class       volScalarField;
    location    "550";
    object      T;
}
// * * * * * * * * * * * * * * * * * * * * * * * * * * * * * * * * * * * * * //

dimensions      [0 0 0 1 0 0 0];

internalField   nonuniform List<scalar> 
78750
(
288.87
289.705
289.978
290.038
290.06
290.103
290.173
290.249
290.321
290.388
290.447
290.501
290.551
290.599
290.645
290.689
290.731
290.771
290.809
290.845
290.879
290.912
290.942
290.97
290.996
291.019
291.039
291.056
291.064
291.072
291.08
291.089
291.238
292.729
300.244
288.626
289.175
289.381
289.455
289.598
289.81
289.988
290.133
290.26
290.376
290.487
290.594
290.697
290.795
290.887
290.974
291.055
291.132
291.203
291.268
291.328
291.383
291.433
291.477
291.515
291.546
291.57
291.587
291.589
291.581
291.549
291.552
291.773
293.81
300.834
288.34
288.662
288.916
289.208
289.512
289.801
290.044
290.25
290.424
290.577
290.714
290.837
290.949
291.051
291.143
291.228
291.305
291.376
291.441
291.501
291.555
291.602
291.643
291.679
291.711
291.736
291.755
291.768
291.771
291.772
291.785
291.937
292.866
295.474
301.674
288.383
288.833
289.274
289.697
290.046
290.296
290.485
290.636
290.765
290.881
290.988
291.089
291.183
291.273
291.358
291.438
291.515
291.586
291.653
291.713
291.768
291.816
291.858
291.892
291.917
291.933
291.943
291.945
291.944
291.953
292.025
292.413
293.863
296.77
302.421
288.423
288.952
289.424
289.81
290.109
290.34
290.53
290.696
290.846
290.984
291.115
291.24
291.358
291.47
291.576
291.674
291.765
291.847
291.921
291.987
292.044
292.092
292.128
292.155
292.171
292.176
292.175
292.17
292.169
292.191
292.33
292.914
294.722
297.711
302.884
288.467
289.074
289.605
290.023
290.317
290.54
290.727
290.894
291.048
291.191
291.322
291.442
291.554
291.659
291.758
291.85
291.936
292.015
292.086
292.15
292.206
292.254
292.293
292.322
292.341
292.352
292.357
292.363
292.382
292.452
292.689
293.485
295.534
298.538
303.37
288.491
289.129
289.655
290.049
290.334
290.556
290.743
290.91
291.064
291.208
291.344
291.473
291.596
291.713
291.824
291.928
292.025
292.116
292.198
292.271
292.333
292.387
292.431
292.466
292.491
292.509
292.523
292.542
292.583
292.695
293.02
293.962
296.164
299.132
303.684
288.515
289.181
289.71
290.098
290.378
290.595
290.781
290.947
291.099
291.241
291.375
291.501
291.621
291.735
291.844
291.948
292.047
292.142
292.233
292.32
292.402
292.472
292.528
292.574
292.611
292.643
292.676
292.721
292.806
292.99
293.436
294.542
296.811
299.726
304.061
288.52
289.186
289.715
290.1
290.379
290.597
290.782
290.948
291.1
291.242
291.375
291.501
291.621
291.736
291.844
291.948
292.048
292.143
292.234
292.321
292.406
292.489
292.569
292.64
292.702
292.756
292.813
292.889
293.015
293.264
293.809
295.036
297.325
300.197
304.381
288.521
289.186
289.714
290.099
290.373
290.588
290.772
290.938
291.091
291.234
291.368
291.495
291.616
291.73
291.839
291.944
292.044
292.14
292.232
292.32
292.406
292.489
292.572
292.656
292.742
292.833
292.928
293.045
293.222
293.523
294.125
295.405
297.663
300.51
304.611
288.52
289.182
289.703
290.081
290.351
290.562
290.743
290.906
291.056
291.197
291.33
291.456
291.575
291.69
291.799
291.904
292.005
292.102
292.196
292.289
292.379
292.47
292.56
292.65
292.742
292.841
292.958
293.114
293.341
293.713
294.415
295.786
298.033
300.829
304.809
288.518
289.178
289.702
290.081
290.351
290.562
290.742
290.905
291.055
291.195
291.328
291.453
291.572
291.686
291.793
291.896
291.993
292.087
292.177
292.265
292.351
292.438
292.527
292.62
292.719
292.827
292.954
293.123
293.374
293.787
294.572
296.046
298.303
301.072
304.966
288.521
289.191
289.723
290.108
290.38
290.592
290.773
290.936
291.087
291.23
291.365
291.494
291.617
291.733
291.842
291.946
292.042
292.131
292.215
292.295
292.373
292.45
292.53
292.615
292.709
292.815
292.944
293.121
293.387
293.826
294.653
296.174
298.437
301.199
305.056
288.53
289.22
289.767
290.157
290.431
290.644
290.827
290.994
291.149
291.296
291.436
291.571
291.7
291.822
291.938
292.047
292.146
292.237
292.32
292.396
292.466
292.532
292.599
292.669
292.749
292.846
292.973
293.157
293.44
293.909
294.778
296.339
298.582
301.321
305.145
288.545
289.26
289.82
290.214
290.491
290.706
290.891
291.06
291.217
291.367
291.512
291.651
291.787
291.916
292.038
292.153
292.26
292.358
292.446
292.524
292.594
292.656
292.716
292.777
292.847
292.935
293.058
293.237
293.516
294.011
294.941
296.545
298.763
301.464
305.24
288.559
289.296
289.866
290.261
290.536
290.75
290.936
291.106
291.266
291.419
291.567
291.711
291.85
291.984
292.113
292.236
292.351
292.456
292.553
292.639
292.715
292.782
292.844
292.905
292.974
293.06
293.181
293.362
293.654
294.188
295.178
296.823
298.989
301.625
305.344
288.576
289.338
289.921
290.319
290.592
290.805
290.989
291.158
291.318
291.472
291.622
291.767
291.908
292.045
292.177
292.303
292.422
292.534
292.637
292.731
292.816
292.892
292.962
293.031
293.106
293.197
293.32
293.5
293.794
294.343
295.368
297.038
299.152
301.728
305.41
288.592
289.379
289.977
290.381
290.658
290.874
291.061
291.233
291.397
291.553
291.705
291.852
291.994
292.13
292.26
292.383
292.5
292.611
292.715
292.813
292.905
292.989
293.068
293.146
293.23
293.329
293.456
293.635
293.933
294.483
295.496
297.153
299.218
301.754
305.438
288.604
289.411
290.022
290.436
290.72
290.943
291.137
291.317
291.487
291.651
291.808
291.958
292.099
292.231
292.355
292.47
292.58
292.686
292.788
292.887
292.983
293.075
293.164
293.254
293.351
293.463
293.604
293.801
294.118
294.682
295.691
297.322
299.313
301.785
305.464
288.615
289.44
290.066
290.488
290.779
291.009
291.212
291.401
291.582
291.756
291.921
292.076
292.216
292.341
292.453
292.557
292.655
292.752
292.849
292.946
293.045
293.144
293.242
293.343
293.451
293.575
293.729
293.951
294.306
294.91
295.95
297.573
299.481
301.862
305.504
288.626
289.471
290.111
290.543
290.842
291.082
291.295
291.496
291.689
291.875
292.052
292.213
292.354
292.472
292.573
292.661
292.744
292.827
292.913
293.003
293.1
293.201
293.307
293.418
293.539
293.676
293.847
294.09
294.475
295.118
296.194
297.815
299.644
301.932
305.54
288.638
289.5
290.147
290.583
290.887
291.134
291.357
291.57
291.778
291.981
292.174
292.35
292.5
292.62
292.715
292.794
292.864
292.932
293.003
293.082
293.17
293.268
293.376
293.493
293.62
293.767
293.956
294.226
294.643
295.325
296.436
298.05
299.8
301.999
305.574
288.649
289.522
290.169
290.598
290.898
291.143
291.368
291.585
291.801
292.018
292.231
292.427
292.596
292.732
292.837
292.919
292.988
293.051
293.114
293.183
293.262
293.353
293.456
293.573
293.705
293.861
294.064
294.355
294.799
295.515
296.65
298.246
299.924
302.046
305.598
288.654
289.531
290.177
290.603
290.901
291.146
291.37
291.587
291.804
292.022
292.238
292.444
292.629
292.785
292.91
293.009
293.089
293.157
293.222
293.289
293.364
293.451
293.551
293.666
293.798
293.961
294.179
294.489
294.96
295.704
296.856
298.427
300.036
302.088
305.616
288.655
289.538
290.187
290.613
290.91
291.155
291.381
291.603
291.825
292.046
292.26
292.461
292.646
292.809
292.946
293.06
293.154
293.235
293.307
293.379
293.456
293.542
293.641
293.755
293.892
294.064
294.295
294.623
295.115
295.881
297.041
298.577
300.124
302.115
305.626
288.665
289.573
290.237
290.663
290.958
291.206
291.441
291.676
291.912
292.141
292.352
292.542
292.711
292.862
292.995
293.111
293.211
293.3
293.381
293.46
293.542
293.633
293.735
293.854
293.998
294.183
294.433
294.786
295.308
296.102
297.268
298.754
300.233
302.164
305.647
288.698
289.671
290.372
290.806
291.106
291.367
291.626
291.891
292.15
292.384
292.579
292.735
292.865
292.981
293.088
293.188
293.281
293.368
293.451
293.534
293.621
293.715
293.822
293.947
294.101
294.303
294.577
294.967
295.538
296.376
297.554
298.985
300.397
302.27
305.692
288.759
289.831
290.583
291.036
291.357
291.651
291.951
292.255
292.538
292.765
292.919
293.02
293.096
293.164
293.233
293.306
293.381
293.459
293.537
293.618
293.704
293.799
293.907
294.035
294.196
294.408
294.702
295.122
295.735
296.616
297.801
299.177
300.537
302.373
305.736
288.829
289.993
290.778
291.252
291.606
291.94
292.282
292.62
292.911
293.117
293.235
293.289
293.326
293.36
293.401
293.45
293.508
293.574
293.646
293.723
293.808
293.901
294.009
294.138
294.302
294.517
294.817
295.25
295.881
296.779
297.959
299.291
300.616
302.434
305.765
288.858
290.037
290.819
291.298
291.664
292.014
292.364
292.692
292.969
293.183
293.336
293.444
293.499
293.53
293.561
293.598
293.644
293.701
293.767
293.842
293.925
294.018
294.128
294.261
294.426
294.643
294.942
295.371
296
296.894
298.059
299.357
300.66
302.471
305.781
288.858
290.025
290.791
291.265
291.635
291.987
292.325
292.636
292.91
293.139
293.321
293.458
293.561
293.642
293.699
293.742
293.782
293.833
293.895
293.967
294.049
294.144
294.259
294.398
294.571
294.793
295.094
295.518
296.133
297.004
298.136
299.387
300.665
302.475
305.78
288.815
289.894
290.614
291.082
291.443
291.768
292.075
292.369
292.647
292.906
293.14
293.343
293.51
293.64
293.743
293.827
293.901
293.964
294.027
294.096
294.177
294.274
294.393
294.542
294.727
294.963
295.276
295.707
296.316
297.164
298.253
299.443
300.685
302.484
305.778
288.713
289.623
290.259
290.697
291.03
291.322
291.599
291.871
292.144
292.418
292.69
292.954
293.202
293.425
293.617
293.777
293.907
294.016
294.113
294.205
294.296
294.397
294.52
294.676
294.874
295.129
295.463
295.914
296.533
297.368
298.411
299.534
300.732
302.509
305.776
288.601
289.339
289.878
290.268
290.562
290.814
291.05
291.281
291.516
291.761
292.022
292.295
292.574
292.857
293.138
293.405
293.649
293.862
294.045
294.2
294.339
294.472
294.612
294.777
294.984
295.251
295.603
296.074
296.709
297.544
298.558
299.636
300.794
302.53
305.769
288.538
289.189
289.686
290.057
290.341
290.569
290.771
290.96
291.141
291.32
291.498
291.687
291.896
292.126
292.386
292.68
293.005
293.315
293.613
293.892
294.148
294.38
294.587
294.789
295.02
295.304
295.669
296.155
296.804
297.644
298.646
299.694
300.819
302.528
305.744
288.508
289.138
289.651
290.042
290.33
290.559
290.76
290.947
291.128
291.303
291.473
291.638
291.797
291.95
292.097
292.243
292.403
292.631
292.914
293.246
293.592
293.956
294.323
294.648
294.949
295.268
295.649
296.145
296.8
297.643
298.645
299.694
300.817
302.504
305.709
288.494
289.122
289.643
290.044
290.338
290.57
290.774
290.966
291.153
291.337
291.52
291.694
291.854
291.996
292.124
292.246
292.368
292.497
292.641
292.812
293.064
293.415
293.842
294.277
294.707
295.131
295.569
296.086
296.753
297.612
298.623
299.677
300.79
302.46
305.681
288.499
289.156
289.721
290.161
290.481
290.731
290.954
291.171
291.393
291.619
291.833
292.019
292.169
292.281
292.366
292.435
292.5
292.573
292.664
292.784
292.946
293.181
293.522
293.938
294.415
294.933
295.46
296.032
296.726
297.598
298.618
299.677
300.793
302.46
305.684
288.542
289.305
289.959
290.443
290.789
291.072
291.341
291.618
291.906
292.183
292.419
292.596
292.712
292.776
292.804
292.815
292.821
292.833
292.863
292.919
293.014
293.175
293.419
293.749
294.184
294.722
295.315
295.957
296.693
297.583
298.612
299.675
300.798
302.479
305.704
288.629
289.542
290.274
290.775
291.137
291.459
291.793
292.152
292.511
292.818
293.035
293.162
293.219
293.23
293.216
293.194
293.169
293.152
293.152
293.177
293.234
293.334
293.494
293.742
294.107
294.602
295.204
295.895
296.69
297.601
298.631
299.687
300.812
302.511
305.74
288.74
289.795
290.563
291.054
291.428
291.794
292.201
292.639
293.036
293.309
293.442
293.499
293.516
293.513
293.498
293.478
293.457
293.443
293.441
293.46
293.504
293.583
293.706
293.896
294.201
294.655
295.242
295.936
296.746
297.698
298.735
299.769
300.889
302.613
305.806
288.81
289.924
290.688
291.176
291.57
291.974
292.402
292.821
293.172
293.422
293.582
293.645
293.672
293.683
293.687
293.687
293.686
293.688
293.699
293.725
293.772
293.846
293.958
294.13
294.401
294.813
295.384
296.092
296.921
297.87
298.892
299.897
301.011
302.758
305.886
288.814
289.928
290.688
291.172
291.569
291.973
292.388
292.787
293.135
293.407
293.598
293.727
293.796
293.826
293.847
293.864
293.881
293.899
293.923
293.958
294.009
294.081
294.183
294.335
294.569
294.933
295.463
296.161
297.006
297.97
298.986
299.965
301.07
302.834
305.919
288.793
289.864
290.595
291.072
291.453
291.819
292.188
292.56
292.923
293.256
293.532
293.73
293.868
293.962
294.009
294.034
294.059
294.088
294.123
294.169
294.231
294.313
294.423
294.577
294.801
295.135
295.626
296.298
297.139
298.102
299.095
300.047
301.149
302.929
305.958
288.739
289.718
290.402
290.855
291.208
291.537
291.868
292.204
292.548
292.896
293.238
293.553
293.81
293.992
294.116
294.196
294.237
294.27
294.307
294.354
294.416
294.501
294.618
294.783
295.023
295.37
295.86
296.517
297.336
298.268
299.22
300.136
301.224
303.01
305.988
288.669
289.538
290.156
290.576
290.897
291.184
291.462
291.745
292.041
292.354
292.693
293.056
293.427
293.775
294.06
294.254
294.377
294.451
294.499
294.548
294.606
294.684
294.792
294.949
295.182
295.526
296.017
296.674
297.483
298.392
299.314
300.211
301.285
303.059
305.996
288.613
289.401
289.977
290.366
290.655
290.905
291.139
291.365
291.597
291.85
292.133
292.459
292.829
293.235
293.661
294.058
294.361
294.546
294.655
294.726
294.791
294.866
294.966
295.108
295.32
295.638
296.104
296.74
297.533
298.425
299.327
300.209
301.274
303.045
305.983
288.607
289.393
289.969
290.357
290.645
290.894
291.127
291.347
291.559
291.766
291.976
292.201
292.477
292.822
293.233
293.691
294.143
294.508
294.741
294.873
294.961
295.041
295.135
295.264
295.453
295.742
296.175
296.784
297.56
298.44
299.332
300.209
301.274
303.041
305.979
288.604
289.382
289.95
290.337
290.625
290.873
291.105
291.328
291.544
291.755
291.965
292.183
292.426
292.718
293.079
293.52
294.009
294.466
294.808
295.019
295.148
295.247
295.346
295.47
295.645
295.908
296.307
296.886
297.644
298.507
299.37
300.221
301.283
303.06
305.993
288.592
289.341
289.886
290.263
290.543
290.782
291.006
291.225
291.442
291.658
291.873
292.09
292.316
292.571
292.883
293.286
293.79
294.341
294.818
295.146
295.348
295.482
295.598
295.729
295.908
296.171
296.559
297.11
297.815
298.612
299.427
300.256
301.303
303.073
306.01
288.573
289.287
289.814
290.18
290.446
290.669
290.874
291.075
291.276
291.479
291.681
291.881
292.083
292.295
292.534
292.839
293.259
293.822
294.47
295.056
295.467
295.724
295.908
296.078
296.283
296.562
296.956
297.494
298.165
298.915
299.679
300.468
301.495
303.255
306.091
288.559
289.259
289.79
290.164
290.431
290.645
290.834
291.013
291.186
291.361
291.541
291.722
291.903
292.084
292.268
292.467
292.714
293.068
293.608
294.313
295.049
295.645
296.03
296.32
296.589
296.9
297.301
297.816
298.438
299.125
299.835
300.597
301.608
303.316
306.091
288.553
289.244
289.778
290.161
290.431
290.644
290.832
291.009
291.181
291.349
291.516
291.682
291.848
292.015
292.183
292.349
292.515
292.699
292.939
293.344
294.037
294.91
295.77
296.3
296.686
297.062
297.488
298
298.598
299.256
299.943
300.679
301.644
303.305
306.067
288.532
289.217
289.77
290.16
290.432
290.645
290.833
291.01
291.181
291.349
291.514
291.677
291.84
292.002
292.165
292.33
292.499
292.671
292.848
293.035
293.251
293.732
294.655
295.765
296.562
297.037
297.484
298
298.599
299.256
299.943
300.676
301.634
303.281
306.045
288.525
289.217
289.779
290.192
290.481
290.703
290.895
291.073
291.242
291.406
291.567
291.726
291.885
292.045
292.207
292.375
292.548
292.723
292.892
293.046
293.189
293.344
293.58
294.049
294.909
296.118
297.172
297.919
298.536
299.136
299.781
300.501
301.42
302.97
305.841
288.545
289.295
289.915
290.348
290.643
290.872
291.072
291.258
291.435
291.606
291.774
291.942
292.112
292.289
292.478
292.683
292.903
293.127
293.336
293.509
293.63
293.697
293.737
293.838
294.09
294.663
295.708
296.935
297.989
298.873
299.666
300.437
301.342
302.852
305.778
288.582
289.405
290.06
290.498
290.797
291.032
291.241
291.434
291.618
291.795
291.97
292.149
292.336
292.542
292.778
293.05
293.352
293.648
293.906
294.106
294.236
294.296
294.301
294.289
294.325
294.574
295.149
296.199
297.426
298.509
299.398
300.217
301.167
302.74
305.757
288.636
289.546
290.232
290.669
290.97
291.218
291.441
291.648
291.841
292.026
292.21
292.401
292.611
292.86
293.183
293.592
294.03
294.384
294.626
294.758
294.816
294.826
294.816
294.801
294.803
294.86
295.181
295.908
296.962
298.097
299.15
300.107
301.135
302.742
305.786
288.696
289.673
290.369
290.807
291.117
291.379
291.617
291.836
292.039
292.23
292.417
292.617
292.847
293.131
293.494
293.971
294.509
294.933
295.144
295.227
295.248
295.237
295.209
295.175
295.151
295.17
295.345
295.929
296.951
298.099
299.165
300.114
301.143
302.785
305.842
288.727
289.726
290.424
290.865
291.189
291.473
291.735
291.975
292.185
292.367
292.532
292.701
292.899
293.153
293.506
293.979
294.537
295.029
295.326
295.48
295.554
295.583
295.586
295.58
295.586
295.651
295.884
296.43
297.366
298.445
299.415
300.288
301.339
303.11
306.056
288.736
289.732
290.429
290.875
291.21
291.512
291.801
292.067
292.299
292.491
292.648
292.791
292.953
293.16
293.448
293.91
294.56
295.201
295.639
295.855
295.958
296.022
296.078
296.153
296.285
296.527
296.942
297.572
298.374
299.22
300.017
300.817
301.882
303.667
306.319
288.741
289.731
290.424
290.869
291.206
291.51
291.804
292.083
292.339
292.561
292.749
292.908
293.049
293.209
293.431
293.81
294.444
295.247
295.895
296.289
296.512
296.644
296.762
296.92
297.156
297.509
297.995
298.604
299.284
299.961
300.632
301.387
302.452
304.168
306.504
288.712
289.655
290.328
290.777
291.121
291.434
291.735
292.027
292.301
292.544
292.749
292.917
293.059
293.198
293.356
293.542
293.844
294.462
295.305
296.098
296.659
297.012
297.281
297.545
297.861
298.259
298.743
299.289
299.85
300.409
301
301.706
302.72
304.327
306.521
288.677
289.565
290.218
290.663
291.004
291.312
291.614
291.914
292.208
292.485
292.734
292.945
293.119
293.26
293.383
293.521
293.694
293.928
294.422
295.266
296.178
296.883
297.3
297.663
298.043
298.471
298.946
299.448
299.959
300.485
301.055
301.738
302.722
304.313
306.501
288.636
289.461
290.081
290.517
290.853
291.154
291.447
291.744
292.046
292.347
292.634
292.892
293.112
293.293
293.437
293.562
293.69
293.851
294.067
294.414
295.08
295.99
296.868
297.506
297.998
298.444
298.906
299.388
299.889
300.407
300.963
301.623
302.573
304.12
306.386
288.604
289.385
289.976
290.389
290.703
290.984
291.262
291.549
291.847
292.155
292.468
292.773
293.053
293.292
293.492
293.647
293.776
293.899
294.041
294.24
294.545
295.081
295.828
296.632
297.342
297.944
298.495
299.046
299.6
300.155
300.731
301.385
302.293
303.83
306.252
288.594
289.367
289.955
290.358
290.651
290.908
291.161
291.423
291.701
292
292.318
292.645
292.967
293.264
293.519
293.724
293.887
294.022
294.148
294.29
294.488
294.808
295.341
296.1
296.929
297.665
298.289
298.872
299.455
300.047
300.655
301.324
302.226
303.754
306.225
288.59
289.366
289.955
290.357
290.649
290.899
291.14
291.386
291.641
291.912
292.207
292.532
292.875
293.217
293.531
293.795
294.003
294.164
294.295
294.415
294.549
294.739
295.065
295.647
296.499
297.42
298.221
298.846
299.436
300.032
300.645
301.317
302.219
303.745
306.221
288.59
289.369
289.963
290.368
290.66
290.908
291.147
291.39
291.644
291.911
292.196
292.505
292.844
293.205
293.559
293.877
294.137
294.336
294.488
294.608
294.713
294.824
294.982
295.262
295.799
296.643
297.606
298.508
299.254
299.907
300.537
301.212
302.103
303.614
306.16
288.6
289.406
290.024
290.437
290.728
290.975
291.212
291.452
291.697
291.95
292.219
292.514
292.841
293.204
293.59
293.962
294.282
294.535
294.724
294.865
294.972
295.06
295.149
295.281
295.533
295.995
296.757
297.688
298.594
299.413
300.172
300.93
301.853
303.38
306.053
288.626
289.488
290.148
290.579
290.881
291.139
291.389
291.637
291.879
292.115
292.356
292.619
292.92
293.268
293.655
294.051
294.415
294.718
294.949
295.117
295.243
295.344
295.432
295.524
295.655
295.926
296.418
297.204
298.16
299.109
299.996
300.826
301.786
303.338
306.047
288.663
289.602
290.317
290.779
291.108
291.399
291.685
291.962
292.212
292.432
292.639
292.861
293.121
293.432
293.791
294.175
294.547
294.872
295.133
295.33
295.482
295.601
295.7
295.795
295.905
296.074
296.421
297.074
298.033
299.07
299.99
300.833
301.798
303.357
306.065
288.722
289.763
290.53
291.018
291.382
291.723
292.064
292.383
292.644
292.847
293.024
293.216
293.45
293.744
294.091
294.465
294.827
295.144
295.405
295.612
295.772
295.896
295.995
296.08
296.174
296.313
296.571
297.079
297.907
298.953
299.957
300.833
301.803
303.362
306.074
288.789
289.92
290.716
291.221
291.617
292.007
292.405
292.763
293.03
293.213
293.372
293.549
293.776
294.071
294.424
294.803
295.167
295.488
295.76
295.978
296.143
296.262
296.346
296.406
296.465
296.555
296.732
297.102
297.802
298.731
299.747
300.671
301.683
303.292
306.055
288.842
290.012
290.787
291.286
291.693
292.102
292.51
292.884
293.195
293.437
293.622
293.807
294.04
294.349
294.726
295.126
295.502
295.837
296.132
296.379
296.568
296.701
296.783
296.822
296.838
296.864
296.959
297.221
297.805
298.717
299.729
300.658
301.678
303.288
306.059
288.849
290.015
290.781
291.274
291.682
292.086
292.482
292.853
293.188
293.477
293.725
293.962
294.224
294.545
294.937
295.377
295.807
296.197
296.549
296.845
297.071
297.233
297.336
297.38
297.377
297.356
297.362
297.493
297.907
298.738
299.737
300.662
301.687
303.339
306.122
288.823
289.924
290.637
291.1
291.473
291.829
292.192
292.575
292.968
293.339
293.666
293.957
294.24
294.562
294.954
295.415
295.896
296.366
296.81
297.193
297.494
297.724
297.89
297.994
298.042
298.052
298.066
298.169
298.485
299.096
299.913
300.758
301.803
303.524
306.217
288.739
289.709
290.362
290.782
291.108
291.421
291.749
292.111
292.511
292.933
293.344
293.715
294.038
294.345
294.689
295.118
295.627
296.182
296.749
297.24
297.646
297.987
298.275
298.508
298.69
298.832
298.966
299.148
299.459
299.942
300.541
301.212
302.137
303.757
306.288
288.719
289.658
290.295
290.697
290.992
291.249
291.513
291.793
292.104
292.463
292.871
293.302
293.715
294.081
294.41
294.752
295.161
295.671
296.289
296.942
297.519
297.976
298.344
298.682
298.998
299.298
299.589
299.899
300.262
300.693
301.183
301.752
302.571
304.04
306.369
288.711
289.643
290.281
290.687
290.981
291.232
291.461
291.684
291.912
292.161
292.455
292.813
293.228
293.665
294.07
294.423
294.749
295.107
295.564
296.146
296.801
297.464
298.08
298.6
299.004
299.373
299.747
300.139
300.563
301.016
301.501
302.046
302.807
304.152
306.389
288.673
289.561
290.199
290.619
290.921
291.177
291.415
291.643
291.861
292.071
292.287
292.528
292.82
293.187
293.62
294.05
294.425
294.743
295.055
295.425
295.899
296.484
297.147
297.836
298.527
299.145
299.682
300.138
300.58
301.047
301.54
302.085
302.833
304.155
306.372
288.655
289.535
290.182
290.603
290.901
291.151
291.382
291.602
291.822
292.042
292.263
292.488
292.729
292.997
293.312
293.698
294.118
294.497
294.8
295.069
295.364
295.737
296.226
296.833
297.526
298.254
298.973
299.677
300.324
300.922
301.494
302.077
302.829
304.146
306.351
288.65
289.534
290.182
290.605
290.905
291.154
291.383
291.602
291.818
292.033
292.253
292.481
292.723
292.987
293.279
293.609
293.978
294.354
294.684
294.953
295.188
295.431
295.731
296.136
296.672
297.328
298.062
298.83
299.593
300.33
301.042
301.767
302.631
303.978
306.281
288.658
289.566
290.237
290.671
290.971
291.218
291.443
291.659
291.872
292.086
292.307
292.538
292.787
293.056
293.345
293.657
293.996
294.349
294.679
294.96
295.191
295.396
295.609
295.869
296.222
296.705
297.328
298.062
298.861
299.682
300.499
301.312
302.247
303.688
306.176
288.69
289.654
290.349
290.785
291.086
291.335
291.562
291.78
291.995
292.214
292.441
292.684
292.951
293.242
293.546
293.852
294.161
294.472
294.772
295.045
295.275
295.468
295.65
295.853
296.109
296.453
296.926
297.555
298.32
299.17
300.041
300.902
301.876
303.385
306.068
288.718
289.722
290.433
290.876
291.182
291.435
291.665
291.885
292.103
292.324
292.557
292.813
293.104
293.44
293.785
294.108
294.408
294.69
294.958
295.205
295.42
295.608
295.779
295.949
296.149
296.43
296.821
297.352
298.05
298.883
299.766
300.634
301.611
303.152
305.977
288.754
289.806
290.53
290.97
291.275
291.528
291.759
291.98
292.197
292.418
292.65
292.907
293.202
293.545
293.939
294.329
294.658
294.937
295.187
295.412
295.612
295.791
295.958
296.121
296.296
296.512
296.834
297.335
298.008
298.828
299.704
300.554
301.516
303.069
305.945
288.787
289.886
290.625
291.066
291.371
291.624
291.854
292.069
292.278
292.486
292.702
292.938
293.211
293.545
293.944
294.367
294.76
295.095
295.375
295.611
295.815
295.996
296.164
296.328
296.498
296.697
296.965
297.37
298.007
298.823
299.7
300.549
301.507
303.063
305.94
288.805
289.937
290.696
291.148
291.459
291.715
291.944
292.155
292.356
292.551
292.749
292.96
293.201
293.486
293.845
294.292
294.757
295.171
295.513
295.786
296.01
296.206
296.387
296.562
296.743
296.946
297.206
297.577
298.126
298.882
299.733
300.562
301.512
303.075
305.951
288.829
290
290.777
291.237
291.555
291.818
292.05
292.262
292.458
292.644
292.827
293.018
293.229
293.484
293.8
294.186
294.648
295.122
295.538
295.879
296.155
296.389
296.6
296.802
297.01
297.242
297.527
297.915
298.461
299.174
299.962
300.738
301.655
303.198
306.002
288.855
290.067
290.863
291.333
291.659
291.927
292.163
292.374
292.567
292.749
292.925
293.104
293.298
293.526
293.812
294.181
294.62
295.09
295.542
295.933
296.26
296.538
296.788
297.028
297.276
297.55
297.879
298.304
298.862
299.541
300.264
300.985
301.865
303.375
306.074
288.879
290.125
290.935
291.413
291.747
292.023
292.262
292.474
292.666
292.844
293.015
293.188
293.373
293.587
293.855
294.209
294.643
295.117
295.584
296.009
296.372
296.687
296.971
297.246
297.531
297.845
298.215
298.67
299.228
299.869
300.537
301.22
302.081
303.563
306.154
288.897
290.169
290.991
291.478
291.82
292.102
292.344
292.557
292.746
292.92
293.084
293.248
293.42
293.616
293.86
294.182
294.603
295.096
295.601
296.064
296.466
296.817
297.137
297.445
297.761
298.106
298.5
298.964
299.504
300.101
300.724
301.382
302.234
303.701
306.214
288.908
290.197
291.032
291.529
291.88
292.17
292.418
292.632
292.82
292.99
293.148
293.301
293.459
293.631
293.836
294.106
294.476
294.96
295.512
296.034
296.476
296.868
297.232
297.582
297.935
298.31
298.724
299.191
299.713
300.276
300.866
301.5
302.339
303.789
306.248
288.911
290.207
291.053
291.562
291.925
292.225
292.48
292.699
292.888
293.055
293.209
293.357
293.504
293.658
293.83
294.041
294.336
294.749
295.277
295.855
296.395
296.849
297.242
297.625
298.014
298.421
298.858
299.334
299.85
300.398
300.971
301.593
302.419
303.848
306.266
288.91
290.209
291.064
291.583
291.956
292.267
292.532
292.757
292.948
293.116
293.268
293.411
293.552
293.695
293.846
294.019
294.235
294.542
294.98
295.546
296.15
296.706
297.191
297.615
298.016
298.435
298.884
299.366
299.882
300.425
300.994
301.616
302.44
303.86
306.266
288.905
290.205
291.069
291.598
291.982
292.304
292.579
292.81
293.005
293.173
293.324
293.466
293.603
293.74
293.88
294.028
294.198
294.411
294.711
295.147
295.713
296.327
296.912
297.442
297.931
298.4
298.872
299.36
299.878
300.421
300.99
301.612
302.437
303.853
306.255
288.901
290.205
291.083
291.624
292.019
292.353
292.636
292.873
293.069
293.237
293.387
293.527
293.662
293.796
293.932
294.071
294.218
294.385
294.59
294.871
295.278
295.822
296.438
297.049
297.621
298.161
298.69
299.227
299.774
300.335
300.916
301.548
302.38
303.797
306.225
288.902
290.215
291.103
291.654
292.062
292.409
292.703
292.944
293.142
293.309
293.457
293.595
293.729
293.862
293.997
294.136
294.279
294.432
294.603
294.812
295.094
295.493
296.026
296.642
297.272
297.88
298.468
299.047
299.626
300.211
300.81
301.455
302.297
303.73
306.195
288.905
290.23
291.128
291.688
292.108
292.469
292.773
293.02
293.218
293.383
293.529
293.665
293.797
293.929
294.064
294.205
294.352
294.506
294.67
294.855
295.089
295.409
295.84
296.389
297.012
297.654
298.285
298.907
299.525
300.141
300.761
301.418
302.269
303.719
306.195
288.911
290.254
291.161
291.731
292.166
292.542
292.856
293.106
293.303
293.465
293.606
293.738
293.868
293.999
294.135
294.277
294.43
294.591
294.761
294.949
295.17
295.45
295.835
296.336
296.933
297.58
298.237
298.886
299.524
300.149
300.774
301.432
302.284
303.737
306.207
288.922
290.283
291.199
291.78
292.231
292.625
292.95
293.203
293.397
293.554
293.69
293.817
293.943
294.072
294.207
294.351
294.507
294.678
294.864
295.067
295.301
295.582
295.937
296.398
296.969
297.609
298.27
298.928
299.575
300.207
300.834
301.496
302.359
303.818
306.248
288.932
290.312
291.237
291.83
292.299
292.713
293.051
293.307
293.498
293.648
293.776
293.897
294.017
294.142
294.275
294.418
294.576
294.755
294.955
295.176
295.426
295.721
296.083
296.535
297.082
297.698
298.342
298.987
299.622
300.246
300.872
301.54
302.419
303.893
306.287
288.944
290.345
291.279
291.885
292.376
292.813
293.167
293.427
293.614
293.756
293.875
293.985
294.097
294.216
294.344
294.485
294.644
294.828
295.038
295.273
295.537
295.842
296.207
296.651
297.177
297.768
298.39
299.018
299.64
300.256
300.878
301.55
302.44
303.931
306.308
288.955
290.375
291.318
291.938
292.45
292.913
293.285
293.552
293.739
293.875
293.986
294.087
294.19
294.3
294.422
294.558
294.716
294.903
295.121
295.364
295.636
295.943
296.303
296.731
297.235
297.804
298.41
299.028
299.645
300.258
300.878
301.55
302.444
303.943
306.315
288.969
290.411
291.362
291.994
292.528
293.016
293.408
293.685
293.873
294.005
294.109
294.203
294.297
294.398
294.513
294.646
294.806
295
295.225