/*--------------------------------*- C++ -*----------------------------------*\
| =========                 |                                                 |
| \\      /  F ield         | OpenFOAM: The Open Source CFD Toolbox           |
|  \\    /   O peration     | Version:  2.0.x                                 |
|   \\  /    A nd           | Web:      www.OpenFOAM.org                      |
|    \\/     M anipulation  |                                                 |
\*---------------------------------------------------------------------------*/
FoamFile
{
    version     2.0;
    format      ascii;
    class       volVectorField;
    location    "550";
    object      U;
}
// * * * * * * * * * * * * * * * * * * * * * * * * * * * * * * * * * * * * * //

dimensions      [0 1 -1 0 0 0 0];

internalField   nonuniform List<vector> 
78750
(
(-0.00460933 0.022694 0.0414101)
(-0.015403 0.0165362 0.0619926)
(-0.0262487 -0.000163497 0.0618814)
(-0.0337711 -0.0165477 0.0603022)
(-0.0351596 -0.0295457 0.0592595)
(-0.034287 -0.0383763 0.0598307)
(-0.0289265 -0.0459669 0.0590821)
(-0.0235632 -0.0500563 0.058483)
(-0.0153442 -0.0539341 0.057766)
(-0.00800919 -0.0559863 0.0572374)
(0.000854492 -0.057434 0.0566654)
(0.00924847 -0.0579269 0.0562098)
(0.0176255 -0.0578263 0.0558504)
(0.0259393 -0.0570393 0.0555442)
(0.0338535 -0.0558524 0.0552662)
(0.0413931 -0.0544332 0.0549032)
(0.0484453 -0.0527615 0.0544949)
(0.0548826 -0.050801 0.054105)
(0.0607826 -0.048492 0.0537897)
(0.0658044 -0.0461379 0.0534195)
(0.0705584 -0.0424663 0.0535594)
(0.0736333 -0.0417153 0.0523456)
(0.0768402 -0.0372648 0.0515839)
(0.0782487 -0.0339601 0.0517428)
(0.0790358 -0.0310015 0.0518839)
(0.0788394 -0.0264736 0.0521283)
(0.0773663 -0.0215787 0.0524505)
(0.0747726 -0.0163822 0.0527991)
(0.0706075 -0.0107282 0.0533177)
(0.0645672 -0.00432493 0.0539328)
(0.0569499 0.0033984 0.0545308)
(0.0479026 0.0108154 0.0557032)
(0.0359241 0.0182177 0.0576729)
(0.022114 0.0277678 0.0590326)
(0.00699163 0.0331027 0.0392348)
(9.02462e-05 0.0396931 0.0288601)
(-0.0014677 0.0510377 0.0449857)
(-0.0052409 0.0323454 0.0476232)
(-0.00612196 -0.00346773 0.0445127)
(-0.00588022 -0.050442 0.0406659)
(-0.00192401 -0.0835018 0.0366794)
(0.00177923 -0.101368 0.0354562)
(0.00668115 -0.113283 0.0335961)
(0.0118615 -0.120591 0.032007)
(0.0172358 -0.124547 0.030766)
(0.0221786 -0.126032 0.0298896)
(0.0278568 -0.125263 0.0292308)
(0.0318724 -0.123979 0.028922)
(0.0368401 -0.121284 0.0286421)
(0.0408854 -0.117696 0.0285054)
(0.0446553 -0.113378 0.0284959)
(0.0480524 -0.108401 0.0286285)
(0.0510509 -0.102813 0.0289093)
(0.0536262 -0.0966316 0.029343)
(0.0557794 -0.0899455 0.0298817)
(0.0573231 -0.0827456 0.0305211)
(0.0587383 -0.0728013 0.0326443)
(0.0592377 -0.0630467 0.0345822)
(0.0591118 -0.0535974 0.0360672)
(0.0585335 -0.0445721 0.0366069)
(0.0571129 -0.0349023 0.0372469)
(0.0550267 -0.0246551 0.0379306)
(0.0528358 -0.0133942 0.0388358)
(0.0482391 0.00602876 0.0412566)
(0.0441002 0.0176971 0.0427381)
(0.0389454 0.0308042 0.0443617)
(0.0314477 0.0512501 0.045996)
(0.0229859 0.0748316 0.0487035)
(0.0120611 0.0957716 0.0479343)
(0.00335992 0.0899934 0.0341982)
(0.000288176 0.0114117 0.0204673)
(0.00334921 0.00998083 0.0367765)
(0.00848519 -0.0224557 0.0389114)
(0.0149622 -0.0646761 0.0374602)
(0.0210139 -0.1032 0.033528)
(0.0249693 -0.130775 0.0297728)
(0.0280726 -0.147536 0.0267813)
(0.0306735 -0.156299 0.0247111)
(0.032802 -0.1601 0.0232518)
(0.0348402 -0.160648 0.0221544)
(0.0362966 -0.159778 0.0216309)
(0.037896 -0.157367 0.0211376)
(0.0391601 -0.15382 0.0207676)
(0.0402049 -0.149521 0.0204915)
(0.0411283 -0.144475 0.0203023)
(0.041899 -0.138752 0.0201927)
(0.0425221 -0.132399 0.020164)
(0.0429631 -0.125441 0.0202371)
(0.0432025 -0.117871 0.0204401)
(0.0431965 -0.109682 0.0207966)
(0.0429836 -0.101115 0.0211466)
(0.042402 -0.0927405 0.0208584)
(0.0418673 -0.0831979 0.0211543)
(0.0410119 -0.0724405 0.0225008)
(0.0396721 -0.0605338 0.0243826)
(0.0379679 -0.0490278 0.0257119)
(0.035872 -0.0369418 0.0272202)
(0.0335138 -0.0227607 0.029361)
(0.0302452 -0.00307025 0.0331607)
(0.0278742 0.00906652 0.0353723)
(0.0239564 0.029032 0.0384359)
(0.0199787 0.0564779 0.0416402)
(0.013414 0.090828 0.0434288)
(0.00670668 0.113793 0.0407493)
(0.00190451 0.101132 0.0282699)
(-0.000268061 -0.00983017 0.0152427)
(0.00255682 -0.0489659 0.0246231)
(0.00769311 -0.0961321 0.0232173)
(0.0131412 -0.135798 0.0192657)
(0.0175981 -0.159976 0.0163766)
(0.0210716 -0.171556 0.0149055)
(0.0236977 -0.17644 0.0142291)
(0.0257208 -0.178148 0.0138638)
(0.0277352 -0.178007 0.0135918)
(0.0292603 -0.177182 0.0134241)
(0.0310658 -0.175309 0.0131195)
(0.0325668 -0.172567 0.0127705)
(0.0340515 -0.169002 0.0123942)
(0.0353617 -0.164795 0.0119621)
(0.036464 -0.159647 0.0115573)
(0.0373276 -0.15355 0.0112144)
(0.0379425 -0.146603 0.0109364)
(0.0382984 -0.138887 0.0107273)
(0.0383795 -0.130401 0.010632)
(0.0382548 -0.121089 0.0107519)
(0.0379667 -0.110988 0.0110964)
(0.0370118 -0.0996926 0.0119152)
(0.0363056 -0.0874497 0.0135301)
(0.0347355 -0.0750818 0.0144865)
(0.0332085 -0.0618842 0.0158571)
(0.0313182 -0.0482016 0.0175431)
(0.0292378 -0.0355441 0.0186847)
(0.0269736 -0.0210731 0.0206751)
(0.0240221 -0.00258593 0.0244779)
(0.0216789 0.00979865 0.0271847)
(0.018124 0.0311278 0.0317028)
(0.0147995 0.0624086 0.0367441)
(0.00944847 0.103229 0.0404703)
(0.0042665 0.125681 0.03747)
(0.000995344 0.106459 0.0241047)
(7.31974e-05 -0.0196408 0.00948082)
(0.00287713 -0.0756718 0.0140561)
(0.00692245 -0.124908 0.0138117)
(0.010792 -0.157535 0.0134573)
(0.0139654 -0.176573 0.0133016)
(0.0166388 -0.187814 0.0130119)
(0.019139 -0.194527 0.0125339)
(0.0213951 -0.198144 0.0119218)
(0.0237028 -0.199287 0.0111776)
(0.0254565 -0.198668 0.0106121)
(0.0272183 -0.196318 0.0099604)
(0.0285988 -0.19252 0.00935833)
(0.02972 -0.18738 0.00882886)
(0.0305822 -0.180751 0.00844961)
(0.0311426 -0.173189 0.00812048)
(0.0314344 -0.164925 0.00779823)
(0.0314733 -0.156027 0.00748246)
(0.0312868 -0.146551 0.00718429)
(0.0309247 -0.136596 0.00688575)
(0.0303554 -0.126152 0.00655739)
(0.0296177 -0.114889 0.00635761)
(0.0289011 -0.102915 0.00624279)
(0.0277344 -0.0908507 0.00569707)
(0.0267418 -0.0780546 0.00568158)
(0.0255016 -0.0645658 0.00617488)
(0.0241351 -0.0510082 0.00697648)
(0.0226977 -0.038319 0.00753169)
(0.0211213 -0.0237631 0.00902612)
(0.0191142 -0.00510004 0.0123577)
(0.0171961 0.0088083 0.0152499)
(0.0144872 0.0290201 0.0198842)
(0.0118175 0.0638658 0.028714)
(0.00726264 0.109107 0.0340649)
(0.00323435 0.130086 0.0325843)
(0.000798609 0.106911 0.0213891)
(0.000237789 -0.0357998 0.00750037)
(0.00277868 -0.107933 0.0110028)
(0.00576922 -0.159958 0.0106898)
(0.0085511 -0.190059 0.00970093)
(0.0109354 -0.204543 0.00881805)
(0.0129393 -0.210827 0.00815458)
(0.0148154 -0.212901 0.00764817)
(0.0163173 -0.212572 0.00733391)
(0.0177897 -0.210473 0.00705811)
(0.019051 -0.206934 0.00677955)
(0.0201156 -0.202269 0.00648165)
(0.0210056 -0.196673 0.00612446)
(0.0216853 -0.190366 0.00568002)
(0.0222054 -0.183369 0.00515056)
(0.0226083 -0.175668 0.00456562)
(0.0228973 -0.167303 0.00394328)
(0.0230557 -0.158302 0.00328508)
(0.0230938 -0.148707 0.00259018)
(0.0230208 -0.138638 0.00185968)
(0.0228295 -0.12811 0.00115507)
(0.022319 -0.116897 0.000682583)
(0.0220467 -0.104628 0.00103863)
(0.0213634 -0.0918416 0.00129307)
(0.0206061 -0.0786047 0.00162657)
(0.0197168 -0.0649978 0.0021391)
(0.0187111 -0.0515841 0.00276243)
(0.0176238 -0.0390341 0.00321137)
(0.0164273 -0.024841 0.0044495)
(0.0151416 -0.00687899 0.00724312)
(0.0136977 0.008087 0.0102226)
(0.0115983 0.0277848 0.0146767)
(0.00906148 0.0658309 0.0236506)
(0.00542847 0.113082 0.0302332)
(0.00223029 0.1326 0.0276108)
(0.000590642 0.105906 0.018072)
(0.000276528 -0.045726 0.00485644)
(0.00206977 -0.122766 0.00672624)
(0.00393497 -0.17161 0.00655666)
(0.00549961 -0.197963 0.00643084)
(0.00686041 -0.210928 0.00647291)
(0.00821575 -0.217397 0.0065094)
(0.00952204 -0.220494 0.00642699)
(0.0109082 -0.221154 0.0062248)
(0.0121146 -0.220019 0.00599746)
(0.0133387 -0.217069 0.00570293)
(0.0144339 -0.212672 0.00537795)
(0.0154297 -0.20695 0.00504398)
(0.0163206 -0.199991 0.00470969)
(0.0170704 -0.192083 0.00433538)
(0.0176707 -0.18343 0.00389765)
(0.0181338 -0.174111 0.00340351)
(0.0184779 -0.164158 0.00286689)
(0.0186746 -0.153591 0.00228045)
(0.018727 -0.142398 0.00163916)
(0.0186678 -0.130729 0.000918746)
(0.0183851 -0.11876 8.50586e-05)
(0.0180463 -0.106403 -0.000754888)
(0.0175802 -0.0935167 -0.00152703)
(0.0170122 -0.0801992 -0.00213932)
(0.0163717 -0.0666893 -0.00254293)
(0.015669 -0.0534715 -0.00277182)
(0.0148729 -0.0411096 -0.00299952)
(0.0139578 -0.028224 -0.00271056)
(0.0131146 -0.0128764 -0.00141037)
(0.01171 0.00782234 0.00163892)
(0.0100483 0.02754 0.00473119)
(0.00758664 0.0678923 0.0125999)
(0.00453569 0.115133 0.022061)
(0.00184322 0.132701 0.0237642)
(0.00037187 0.103828 0.0149023)
(0.00022379 -0.0545328 0.00402382)
(0.00129949 -0.136693 0.00559471)
(0.00231273 -0.185057 0.00531679)
(0.00328617 -0.20937 0.00503011)
(0.00415689 -0.22128 0.00485573)
(0.00499778 -0.226805 0.00474372)
(0.00590999 -0.2284 0.00470635)
(0.00676874 -0.227508 0.00469652)
(0.00766734 -0.224636 0.00467589)
(0.00851296 -0.22032 0.00463772)
(0.00932793 -0.214852 0.00455738)
(0.0100888 -0.208448 0.00441172)
(0.0107914 -0.201233 0.00418657)
(0.0114305 -0.193254 0.00387522)
(0.0119929 -0.184558 0.00346794)
(0.0124623 -0.175198 0.00295388)
(0.0128399 -0.165202 0.00233468)
(0.0131439 -0.154605 0.00164296)
(0.0133472 -0.143417 0.000920161)
(0.0134345 -0.131651 0.000176165)
(0.0135885 -0.119348 -0.000601295)
(0.0134755 -0.106562 -0.00162416)
(0.0133082 -0.0933521 -0.00274103)
(0.0130609 -0.0799225 -0.00382184)
(0.0127675 -0.0665836 -0.00477318)
(0.0123869 -0.0536118 -0.00552869)
(0.0119407 -0.0409427 -0.00608753)
(0.0113609 -0.0280978 -0.00640087)
(0.0106126 -0.0123197 -0.00577896)
(0.00949482 0.00901665 -0.00313627)
(0.00820041 0.0302157 0.000552626)
(0.00611798 0.0707862 0.00927285)
(0.00346006 0.117142 0.0179855)
(0.00127897 0.13296 0.0195881)
(0.000161992 0.101187 0.0121927)
(8.77969e-05 -0.0578745 0.00262374)
(0.00053735 -0.139558 0.00293426)
(0.0010303 -0.186353 0.00227323)
(0.00162529 -0.210378 0.00208215)
(0.00224474 -0.222221 0.00223261)
(0.00286251 -0.228168 0.00249224)
(0.0035113 -0.230749 0.00275824)
(0.00422224 -0.230886 0.00300021)
(0.00496029 -0.229139 0.00321438)
(0.0057607 -0.225631 0.00343219)
(0.00657112 -0.220671 0.00365751)
(0.00738061 -0.214419 0.00388563)
(0.00815936 -0.207023 0.00409838)
(0.00888315 -0.198637 0.0042699)
(0.00953203 -0.189406 0.00436964)
(0.0100923 -0.179464 0.00436366)
(0.0105571 -0.168926 0.00422174)
(0.0109266 -0.157866 0.00391616)
(0.0112049 -0.146289 0.00342653)
(0.0113921 -0.134192 0.00276161)
(0.011488 -0.121583 0.00194616)
(0.0114979 -0.108543 0.000992759)
(0.0114283 -0.0952122 -0.000112977)
(0.0112897 -0.0817708 -0.0013626)
(0.0110862 -0.0684368 -0.00268046)
(0.0108549 -0.0553599 -0.00390083)
(0.0104672 -0.04262 -0.00503713)
(0.00992198 -0.0294647 -0.00583303)
(0.00904309 -0.0132551 -0.00586491)
(0.007967 0.008887 -0.00449323)
(0.00692226 0.0322793 -0.00191738)
(0.00516145 0.0742502 0.00514991)
(0.00293505 0.118398 0.0125574)
(0.0011441 0.132883 0.0134302)
(0.000196758 0.0984124 0.00855879)
(4.83959e-05 -0.060276 0.00209339)
(0.000339413 -0.143404 0.00205488)
(0.000808073 -0.190668 0.00113369)
(0.0013886 -0.214753 0.000614741)
(0.00198563 -0.226305 0.000475271)
(0.0026054 -0.231745 0.000512705)
(0.00326632 -0.233725 0.000638646)
(0.00394416 -0.233302 0.000797888)
(0.00467282 -0.230966 0.000989669)
(0.00542162 -0.22707 0.00122016)
(0.00619054 -0.22186 0.00148891)
(0.00696699 -0.215512 0.00178931)
(0.00773651 -0.208152 0.00210985)
(0.00848253 -0.199881 0.00243554)
(0.00918645 -0.190787 0.00274699)
(0.00983198 -0.180947 0.00302137)
(0.0104031 -0.170423 0.00324199)
(0.0108819 -0.159275 0.00338592)
(0.0112577 -0.147564 0.00340989)
(0.011524 -0.135341 0.00329951)
(0.0117004 -0.122638 0.00304053)
(0.0117519 -0.109478 0.00263566)
(0.0117046 -0.0959834 0.00206628)
(0.0115546 -0.0823304 0.00129556)
(0.0113059 -0.0687557 0.000273645)
(0.010972 -0.0553634 -0.000948586)
(0.0105016 -0.0417497 -0.00214725)
(0.00988143 -0.0268575 -0.00324815)
(0.00886343 -0.00835813 -0.00409064)
(0.00786689 0.0103908 -0.00418097)
(0.00676369 0.0355434 -0.00293922)
(0.00506605 0.0782224 0.00215786)
(0.00306429 0.120596 0.00887796)
(0.00125307 0.133771 0.0113402)
(0.000196671 0.0973252 0.006689)
(-1.21221e-05 -0.0608045 0.000858209)
(0.000217372 -0.143803 -0.000483818)
(0.000772208 -0.191082 -0.0017918)
(0.00151746 -0.21528 -0.00230822)
(0.00229268 -0.227316 -0.00238693)
(0.00307425 -0.233435 -0.00231603)
(0.00387183 -0.236152 -0.00219771)
(0.00469989 -0.236426 -0.00205748)
(0.00553604 -0.234825 -0.00192613)
(0.00643898 -0.231435 -0.00177135)
(0.00734401 -0.22657 -0.00155836)
(0.00826238 -0.220383 -0.00127778)
(0.00916916 -0.212998 -0.000924905)
(0.0100419 -0.204536 -0.000503543)
(0.0108544 -0.195125 -3.33175e-05)
(0.0115954 -0.184903 0.000467538)
(0.012235 -0.173954 0.00103045)
(0.0127293 -0.162353 0.00161172)
(0.0131499 -0.150131 0.00197874)
(0.0133627 -0.137377 0.00254438)
(0.0134483 -0.124164 0.00312734)
(0.0134027 -0.110609 0.00363404)
(0.0132577 -0.0967958 0.00381646)
(0.0130072 -0.0828642 0.00362584)
(0.0126235 -0.0689679 0.00317882)
(0.0120884 -0.055165 0.00261444)
(0.0114077 -0.0411324 0.00204733)
(0.0105644 -0.0258302 0.0012163)
(0.00949039 -0.00690544 0.000235646)
(0.00851073 0.0118426 -0.000460741)
(0.00719958 0.039371 -0.000464873)
(0.00527189 0.0825017 0.00211076)
(0.00324276 0.123659 0.00662842)
(0.00143657 0.136172 0.00847107)
(0.000229704 0.0977073 0.00554105)
(1.93883e-05 -0.06158 0.0002289)
(0.000492039 -0.146023 -0.00132816)
(0.00137835 -0.194538 -0.00262355)
(0.00245486 -0.219292 -0.00329205)
(0.00355335 -0.231284 -0.00360997)
(0.00463173 -0.237128 -0.00378728)
(0.00570561 -0.239519 -0.00390934)
(0.00673136 -0.239481 -0.004016)
(0.00774533 -0.237631 -0.00413823)
(0.00876564 -0.234029 -0.00426883)
(0.00975078 -0.228998 -0.00437719)
(0.0107204 -0.222683 -0.00445668)
(0.0116583 -0.215185 -0.00449385)
(0.0125484 -0.206592 -0.00447876)
(0.0133549 -0.197044 -0.00445127)
(0.0140977 -0.186643 -0.00442322)
(0.0146615 -0.175265 -0.00403321)
(0.0151522 -0.163107 -0.00329265)
(0.015384 -0.150362 -0.00186483)
(0.0155441 -0.137243 -0.000583932)
(0.0155119 -0.123878 0.000555427)
(0.015347 -0.110185 0.00150153)
(0.0150455 -0.0960796 0.00232022)
(0.0146138 -0.0816342 0.00301439)
(0.0140538 -0.0670395 0.00350379)
(0.0133563 -0.0524458 0.0037055)
(0.0125119 -0.0375758 0.00360718)
(0.0115071 -0.0213712 0.00319303)
(0.0101792 -0.00213867 0.00245523)
(0.00899158 0.0159555 0.00176446)
(0.00734843 0.04698 0.00136264)
(0.00536708 0.0898167 0.00259551)
(0.00334108 0.128997 0.0054789)
(0.00156633 0.140447 0.00681664)
(0.000280864 0.0995944 0.00448748)
(2.9726e-05 -0.0630386 -0.000715135)
(0.000752531 -0.149269 -0.00291614)
(0.00197541 -0.198594 -0.004287)
(0.00333256 -0.223716 -0.00490261)
(0.00467388 -0.235978 -0.00516913)
(0.00597384 -0.242034 -0.00532333)
(0.00722301 -0.244583 -0.00545687)
(0.00845102 -0.24463 -0.0055971)
(0.0095668 -0.242835 -0.00577045)
(0.01069 -0.239146 -0.00600946)
(0.0117286 -0.2339 -0.00627473)
(0.0127243 -0.227246 -0.00656376)
(0.0136594 -0.219263 -0.00684992)
(0.0145071 -0.210019 -0.00708473)
(0.0152626 -0.199561 -0.00721495)
(0.0158422 -0.187977 -0.0067399)
(0.0163445 -0.175836 -0.00617079)
(0.0166766 -0.16313 -0.00558852)
(0.016908 -0.149756 -0.00510337)
(0.0169131 -0.135853 -0.00447149)
(0.016727 -0.121726 -0.00363036)
(0.0163586 -0.107547 -0.00258659)
(0.0158332 -0.0932767 -0.00139598)
(0.0152004 -0.0788085 -0.000147784)
(0.0144973 -0.0641856 0.00104637)
(0.0137098 -0.0494694 0.00205995)
(0.0128109 -0.0343565 0.00281082)
(0.0117325 -0.0172822 0.0032784)
(0.0103238 0.00299967 0.00335664)
(0.00896358 0.0219269 0.00309824)
(0.00712705 0.0539977 0.0026787)
(0.00519317 0.0968976 0.003057)
(0.00323269 0.134909 0.00469121)
(0.00150742 0.14562 0.00550821)
(0.000234246 0.102242 0.00355956)
(8.28106e-05 -0.0653583 -0.00118832)
(0.00103191 -0.154238 -0.00329803)
(0.00244746 -0.204529 -0.00448451)
(0.00392833 -0.229599 -0.00513101)
(0.0053628 -0.241494 -0.00553947)
(0.00672557 -0.247122 -0.00585995)
(0.0080751 -0.249221 -0.0061555)
(0.00927015 -0.248863 -0.00643392)
(0.0104673 -0.246411 -0.00677134)
(0.0115276 -0.242205 -0.00712687)
(0.0125318 -0.236427 -0.00751919)
(0.0134165 -0.229301 -0.00798113)
(0.0141886 -0.220722 -0.00844229)
(0.0148462 -0.210749 -0.00880879)
(0.0154415 -0.199637 -0.00887708)
(0.0159336 -0.187739 -0.00915773)
(0.0163333 -0.175023 -0.00955896)
(0.0166087 -0.161525 -0.00986191)
(0.0167346 -0.147209 -0.00992894)
(0.0166795 -0.132255 -0.00966869)
(0.0164239 -0.11713 -0.00904928)
(0.0159705 -0.102203 -0.00809012)
(0.0153484 -0.0875777 -0.0068514)
(0.0146068 -0.073208 -0.00542445)
(0.0137897 -0.0588788 -0.00390749)
(0.0128998 -0.0441991 -0.00239201)
(0.0118934 -0.0285666 -0.000946688)
(0.010706 -0.0107463 0.000393386)
(0.00952698 0.0100659 0.00158525)
(0.00842635 0.029793 0.00221056)
(0.00662383 0.0627121 0.00258334)
(0.00466537 0.105583 0.00299615)
(0.00277579 0.141987 0.00394657)
(0.00115217 0.151415 0.0043492)
(6.41148e-05 0.104486 0.00268366)
(0.000104863 -0.068328 -0.0016644)
(0.00108514 -0.15979 -0.00387897)
(0.00248665 -0.210453 -0.00499738)
(0.00390827 -0.235253 -0.0056075)
(0.00527021 -0.246906 -0.00602389)
(0.00656518 -0.252328 -0.00638137)
(0.00784198 -0.254188 -0.00673111)
(0.00897759 -0.253561 -0.00706175)
(0.0100961 -0.250755 -0.00745076)
(0.011091 -0.246074 -0.00786022)
(0.0120193 -0.239629 -0.00829385)
(0.0127559 -0.231395 -0.00874735)
(0.0134961 -0.221704 -0.00911062)
(0.0140607 -0.211057 -0.00958319)
(0.0145138 -0.199456 -0.0102349)
(0.0148983 -0.186776 -0.0109673)
(0.0151442 -0.173144 -0.0116736)
(0.0152554 -0.158674 -0.0122853)
(0.0152368 -0.143377 -0.0127167)
(0.0150753 -0.127383 -0.0128736)
(0.0147541 -0.111256 -0.0126936)
(0.0142775 -0.0955421 -0.0121561)
(0.0136649 -0.0804134 -0.0112767)
(0.0129416 -0.065852 -0.0101186)
(0.012134 -0.0516016 -0.00875092)
(0.0112686 -0.0370792 -0.00719589)
(0.010325 -0.0213883 -0.00541654)
(0.00924729 -0.00402204 -0.00344643)
(0.00839341 0.0123131 -0.00192149)
(0.00733415 0.0366364 -0.000254464)
(0.00573796 0.0710582 0.0012213)
(0.00384179 0.113937 0.00229026)
(0.00212274 0.148576 0.00311825)
(0.000708448 0.156418 0.00322222)
(-0.000116139 0.105577 0.00153952)
(0.000116013 -0.0710019 -0.0018491)
(0.00105765 -0.164649 -0.00385933)
(0.0023781 -0.215566 -0.00476407)
(0.00370038 -0.239862 -0.00533281)
(0.00496031 -0.25097 -0.0058099)
(0.00615936 -0.255905 -0.00626848)
(0.00733819 -0.257275 -0.00674042)
(0.00838449 -0.256153 -0.00718839)
(0.00940143 -0.252748 -0.0076999)
(0.0102814 -0.247461 -0.00822638)
(0.0109735 -0.240357 -0.00878374)
(0.0117238 -0.231513 -0.00933449)
(0.0121923 -0.221514 -0.0100369)
(0.0126633 -0.210152 -0.0107825)
(0.0129729 -0.197519 -0.0115502)
(0.0131406 -0.1838 -0.0123127)
(0.0131829 -0.169189 -0.0130557)
(0.0131103 -0.153838 -0.0137485)
(0.0129365 -0.137775 -0.0143318)
(0.0126661 -0.121011 -0.0147157)
(0.0122906 -0.104165 -0.0148347)
(0.0118119 -0.0879465 -0.014656)
(0.0112436 -0.0725254 -0.014157)
(0.0105971 -0.0578473 -0.0133606)
(0.00987883 -0.0436686 -0.0123107)
(0.00911617 -0.0294809 -0.0110302)
(0.00831905 -0.0141265 -0.00944041)
(0.00751545 0.00270401 -0.00751211)
(0.00672711 0.0194947 -0.00567149)
(0.00565897 0.0450002 -0.00329089)
(0.00437021 0.0804599 -0.000848142)
(0.00281109 0.122752 0.00101053)
(0.0014455 0.154586 0.0020099)
(0.000367648 0.160211 0.00207903)
(-0.000163758 0.105362 0.000921039)
(9.04831e-05 -0.0736368 -0.00189306)
(0.000937152 -0.169401 -0.00361806)
(0.00215302 -0.220546 -0.0043038)
(0.00336418 -0.244475 -0.00479033)
(0.00452347 -0.255206 -0.00526951)
(0.00563273 -0.259781 -0.00577517)
(0.0067241 -0.26074 -0.00632355)
(0.00769501 -0.259143 -0.00686105)
(0.00863985 -0.255087 -0.00747823)
(0.00938879 -0.248856 -0.00812406)
(0.0101435 -0.240697 -0.00883759)
(0.0106219 -0.231177 -0.00954513)
(0.0110382 -0.220069 -0.0102526)
(0.0112442 -0.207563 -0.0109539)
(0.0112935 -0.193868 -0.0116512)
(0.0112143 -0.179203 -0.0123563)
(0.0110352 -0.163769 -0.0130755)
(0.0107826 -0.147711 -0.0137983)
(0.0104777 -0.131069 -0.0144847)
(0.0101378 -0.113831 -0.0150573)
(0.00975696 -0.096485 -0.0154404)
(0.00932419 -0.079912 -0.0155975)
(0.00884194 -0.0642902 -0.015474)
(0.00831376 -0.0495177 -0.0150489)
(0.00774009 -0.0353539 -0.0143232)
(0.0071196 -0.0214764 -0.0133049)
(0.00648149 -0.00697696 -0.011903)
(0.00589273 0.00893233 -0.0101941)
(0.00529841 0.0257342 -0.0083524)
(0.00437311 0.0514636 -0.00567663)
(0.00333748 0.0874923 -0.00259257)
(0.00221001 0.129267 -8.19836e-05)
(0.00121108 0.158744 0.00116025)
(0.000396001 0.162524 0.00124054)
(-4.15831e-05 0.104867 0.000176978)
(8.44118e-05 -0.075657 -0.00184839)
(0.00083582 -0.17312 -0.00326449)
(0.0019442 -0.224517 -0.00368857)
(0.00306354 -0.248067 -0.00403433)
(0.00413651 -0.258354 -0.00446542)
(0.00516474 -0.26248 -0.00498595)
(0.00617112 -0.262922 -0.00560112)
(0.00706725 -0.260739 -0.00625336)
(0.00789112 -0.255956 -0.00704459)
(0.00864071 -0.248934 -0.00792992)
(0.00915144 -0.240083 -0.00879017)
(0.00956405 -0.229264 -0.00967009)
(0.00975038 -0.216789 -0.010521)
(0.009756 -0.203006 -0.0113094)
(0.00961407 -0.188261 -0.0120243)
(0.00937259 -0.172828 -0.012679)
(0.00907794 -0.15689 -0.0133019)
(0.00876356 -0.140536 -0.0139178)
(0.00845138 -0.123763 -0.0145282)
(0.00815621 -0.106524 -0.0150971)
(0.00787214 -0.0890704 -0.0155629)
(0.0075765 -0.0724023 -0.0159059)
(0.00726114 -0.0567404 -0.016061)
(0.00692299 -0.0420246 -0.0159903)
(0.00656291 -0.0280211 -0.0156774)
(0.00617034 -0.0143572 -0.0151156)
(0.00573399 -0.000293091 -0.0142136)
(0.00533908 0.0137192 -0.0130448)
(0.00478838 0.032577 -0.011164)
(0.00392455 0.0586506 -0.00833596)
(0.0029421 0.0943645 -0.00473995)
(0.00198611 0.135261 -0.00146444)
(0.00116762 0.162837 0.000256631)
(0.000486684 0.16516 0.000591842)
(3.20147e-05 0.10502 -6.83462e-05)
(6.39121e-05 -0.0774756 -0.00182414)
(0.000763656 -0.17684 -0.00300939)
(0.00184391 -0.228729 -0.00323454)
(0.00295 -0.252069 -0.00348028)
(0.00400944 -0.262009 -0.00386939)
(0.00502568 -0.265737 -0.00438397)
(0.00601126 -0.265674 -0.00502585)
(0.00688413 -0.262827 -0.00576354)
(0.00767448 -0.257141 -0.00669233)
(0.0083321 -0.248937 -0.00776519)
(0.00879906 -0.238549 -0.00889676)
(0.00905446 -0.226199 -0.0100404)
(0.00908791 -0.212285 -0.0111055)
(0.00893794 -0.197332 -0.0120055)
(0.00865852 -0.181797 -0.0127025)
(0.00831039 -0.165949 -0.0132202)
(0.00794454 -0.149884 -0.0136237)
(0.00759522 -0.133577 -0.0139871)
(0.00728136 -0.11694 -0.0143637)
(0.00700999 -0.0998713 -0.0147666)
(0.00678313 -0.0824751 -0.0151661)
(0.00657243 -0.0657838 -0.0155619)
(0.00635747 -0.0500807 -0.0158825)
(0.00613158 -0.035357 -0.0160667)
(0.00589816 -0.0213906 -0.016074)
(0.00564951 -0.00778453 -0.0158818)
(0.00541251 0.0062048 -0.0153815)
(0.00510968 0.0204761 -0.0145727)
(0.00455116 0.0398544 -0.013052)
(0.00376476 0.066358 -0.0105402)
(0.00280543 0.101926 -0.00702913)
(0.00180108 0.141739 -0.00344975)
(0.00101707 0.167224 -0.00135906)
(0.000414791 0.168043 -0.000621889)
(2.69692e-05 0.10547 -0.000672384)
(6.59063e-05 -0.0790492 -0.00168611)
(0.000807132 -0.180398 -0.00240472)
(0.0019156 -0.232914 -0.00231843)
(0.00304511 -0.256031 -0.00246146)
(0.0041207 -0.265528 -0.0028607)
(0.00517789 -0.268733 -0.00344278)
(0.00613058 -0.268111 -0.00413309)
(0.00703356 -0.264319 -0.00505118)
(0.00774008 -0.257759 -0.00614054)
(0.00833033 -0.248286 -0.00756971)
(0.00871951 -0.236274 -0.00914971)
(0.00889223 -0.222156 -0.0107694)
(0.00884761 -0.206637 -0.0122574)
(0.00862682 -0.190475 -0.013455)
(0.0082934 -0.174216 -0.0142833)
(0.00790986 -0.15809 -0.014761)
(0.00752578 -0.14208 -0.0149759)
(0.0071736 -0.126028 -0.015042)
(0.00687048 -0.109738 -0.0150633)
(0.00662323 -0.0930471 -0.015111)
(0.00643832 -0.0760017 -0.0152168)
(0.00628513 -0.059409 -0.0154247)
(0.0061269 -0.0437039 -0.0156982)
(0.00594681 -0.0290382 -0.0159705)
(0.00573688 -0.0152691 -0.0161774)
(0.00549284 -0.00178007 -0.0161868)
(0.00526234 0.0112592 -0.0159614)
(0.0049326 0.0273092 -0.0153333)
(0.00438152 0.0476779 -0.0140656)
(0.00362876 0.0748153 -0.0118745)
(0.00269693 0.110343 -0.00866965)
(0.00166157 0.148814 -0.00520024)
(0.000896655 0.171941 -0.00302581)
(0.000329098 0.171214 -0.00196673)
(-4.8442e-05 0.106315 -0.00126029)
(9.59405e-05 -0.0812066 -0.00162317)
(0.000899012 -0.184897 -0.00197528)
(0.00198285 -0.238031 -0.00158556)
(0.00305756 -0.260967 -0.00154373)
(0.00408362 -0.270056 -0.00184909)
(0.00509513 -0.272696 -0.00241055)
(0.00600019 -0.27134 -0.00315562)
(0.00686301 -0.266454 -0.00421533)
(0.0074993 -0.258283 -0.00560809)
(0.00802908 -0.247409 -0.00727016)
(0.00831239 -0.233678 -0.00920675)
(0.0084058 -0.217762 -0.0112582)
(0.00829382 -0.200657 -0.0131996)
(0.00803036 -0.183352 -0.0148036)
(0.00768244 -0.166471 -0.0159333)
(0.00730885 -0.150181 -0.0165752)
(0.00695096 -0.134327 -0.0168085)
(0.00663367 -0.118627 -0.016755)
(0.00636881 -0.102788 -0.0165409)
(0.00616172 -0.0865823 -0.016275)
(0.00601629 -0.069965 -0.016038)
(0.00590334 -0.0534714 -0.0159243)
(0.00578129 -0.0376296 -0.0159687)
(0.00562582 -0.0226572 -0.0161317)
(0.00542869 -0.00850533 -0.0163443)
(0.0052336 0.00525711 -0.0164488)
(0.00497945 0.0186083 -0.0163692)
(0.00455148 0.035142 -0.0159315)
(0.00398386 0.0561247 -0.014894)
(0.00325984 0.0837895 -0.012971)
(0.00238974 0.119202 -0.0100469)
(0.00143327 0.156138 -0.0067461)
(0.000752432 0.176895 -0.00458235)
(0.000255808 0.174728 -0.00328241)
(-9.69195e-05 0.107424 -0.00187131)
(0.000113707 -0.0835687 -0.00138171)
(0.000817338 -0.189138 -0.00126735)
(0.00168511 -0.242356 -0.000623988)
(0.00251582 -0.264884 -0.000491432)
(0.00331108 -0.273537 -0.000761316)
(0.00410401 -0.275648 -0.00131409)
(0.0048334 -0.273581 -0.00209319)
(0.00548441 -0.267706 -0.00323089)
(0.00606795 -0.258322 -0.00474509)
(0.00645647 -0.245805 -0.00654637)
(0.00668943 -0.23027 -0.00871533)
(0.00670795 -0.212523 -0.0111239)
(0.00656129 -0.193865 -0.0135101)
(0.00630681 -0.17551 -0.0155833)
(0.00600653 -0.158114 -0.0171461)
(0.00570824 -0.14174 -0.0181408)
(0.0054412 -0.126091 -0.0186167)
(0.00521859 -0.110763 -0.0186771)
(0.0050447 -0.0953871 -0.018442)
(0.00492078 -0.0796844 -0.0180279)
(0.00484783 -0.0635376 -0.0175375)
(0.00480661 -0.0472399 -0.0170912)
(0.00476033 -0.0313851 -0.0168067)
(0.0046902 -0.0163095 -0.0166988)
(0.00458936 -0.00222389 -0.016733)
(0.00448412 0.0108984 -0.0167706)
(0.00428682 0.0257553 -0.0166986)
(0.00390977 0.0431583 -0.0163336)
(0.00338347 0.0648404 -0.0154398)
(0.00271304 0.0929949 -0.0137155)
(0.00193271 0.128144 -0.0110103)
(0.00112107 0.163365 -0.00796527)
(0.000567174 0.18185 -0.00589247)
(0.000172046 0.178311 -0.00443852)
(-0.000119968 0.108484 -0.00242843)
(7.36749e-05 -0.0852232 -0.0011477)
(0.000481374 -0.192111 -0.000532335)
(0.00101674 -0.245277 0.000456723)
(0.00153786 -0.267438 0.00073289)
(0.00205786 -0.275763 0.000514731)
(0.00260226 -0.277496 -1.4694e-05)
(0.00312818 -0.274878 -0.000785942)
(0.00364893 -0.268299 -0.00185252)
(0.00407208 -0.258031 -0.00315398)
(0.00444437 -0.244047 -0.00520051)
(0.00462292 -0.22681 -0.00757175)
(0.00466565 -0.207468 -0.0101944)
(0.00458612 -0.187554 -0.0128502)
(0.00442725 -0.168389 -0.0152636)
(0.004235 -0.150616 -0.0172181)
(0.0040451 -0.1342 -0.0186179)
(0.00388121 -0.11873 -0.0194712)
(0.00375514 -0.103708 -0.0198449)
(0.00367078 -0.0887111 -0.0198321)
(0.00362824 -0.0734305 -0.0195315)
(0.00362264 -0.0577122 -0.0190407)
(0.00364976 -0.0416665 -0.0184617)
(0.00367194 -0.0259134 -0.0179813)
(0.00368972 -0.0107487 -0.0176594)
(0.00371047 0.00361502 -0.0175013)
(0.0036777 0.0172839 -0.0173988)
(0.00351194 0.0327728 -0.0172341)
(0.0032094 0.0508921 -0.0168442)
(0.00275666 0.0732871 -0.0159973)
(0.00215917 0.101891 -0.0143937)
(0.00148429 0.136641 -0.0118491)
(0.000832856 0.170118 -0.008989)
(0.000408134 0.186564 -0.0070035)
(0.000115426 0.181729 -0.00543941)
(-0.000108443 0.109418 -0.00291663)
(2.99022e-05 -0.0853315 -0.00105681)
(0.000264389 -0.192847 0.000153365)
(0.000688363 -0.246316 0.00158971)
(0.00112092 -0.268436 0.0020827)
(0.0015638 -0.276675 0.00198287)
(0.00203349 -0.278291 0.00152774)
(0.00252823 -0.275443 0.000774899)
(0.00294844 -0.268458 -0.000373914)
(0.00356838 -0.257431 -0.00202129)
(0.00371702 -0.242366 -0.0038281)
(0.00401186 -0.223872 -0.00609979)
(0.00409315 -0.203227 -0.0086772)
(0.00407211 -0.182128 -0.01135)
(0.00396437 -0.162018 -0.0138925)
(0.00380128 -0.143616 -0.0161021)
(0.00361479 -0.126896 -0.0178503)
(0.00343365 -0.111387 -0.0190947)
(0.00327931 -0.0965141 -0.0198556)
(0.00316425 -0.081781 -0.0201891)
(0.0030936 -0.0668218 -0.0201656)
(0.00306476 -0.0514301 -0.0198602)
(0.00308813 -0.0356558 -0.0193555)
(0.00313233 -0.0200808 -0.0188578)
(0.00320175 -0.00515141 -0.0184614)
(0.00327911 0.0086475 -0.0182348)
(0.00330173 0.0231913 -0.0180383)
(0.003171 0.0394154 -0.0177843)
(0.00289336 0.0583592 -0.0173337)
(0.00246112 0.0815663 -0.0164608)
(0.00189569 0.110625 -0.0148644)
(0.00128092 0.144865 -0.0125124)
(0.000732314 0.176511 -0.00985255)
(0.000385023 0.191108 -0.0079611)
(0.000147765 0.185083 -0.00631197)
(-7.15598e-05 0.110468 -0.00332237)
(-1.27215e-05 -0.0853517 -0.00100401)
(0.000505024 -0.194472 0.00108214)
(0.00133412 -0.24873 0.00298598)
(0.00208181 -0.270855 0.00354474)
(0.00278683 -0.27895 0.00341736)
(0.00347682 -0.28039 0.00291199)
(0.00413244 -0.277323 0.0020885)
(0.00476115 -0.269803 0.000802485)
(0.00515198 -0.257595 -0.00115484)
(0.00545726 -0.241403 -0.00327001)
(0.00556991 -0.221647 -0.00567228)
(0.0054971 -0.199759 -0.00815833)
(0.005316 -0.177474 -0.0105994)
(0.00506086 -0.156282 -0.0129079)
(0.00476299 -0.137012 -0.0149992)
(0.00444818 -0.119732 -0.0167855)
(0.00414146 -0.103988 -0.0182018)
(0.00386471 -0.0891474 -0.0192225)
(0.00363399 -0.0746342 -0.019856)
(0.00345856 -0.0600251 -0.0201332)
(0.00333993 -0.0450911 -0.0200992)
(0.00329375 -0.0298499 -0.0198137)