/*--------------------------------*- C++ -*----------------------------------*\
| =========                 |                                                 |
| \\      /  F ield         | OpenFOAM: The Open Source CFD Toolbox           |
|  \\    /   O peration     | Version:  2.0.x                                 |
|   \\  /    A nd           | Web:      www.OpenFOAM.org                      |
|    \\/     M anipulation  |                                                 |
\*---------------------------------------------------------------------------*/
FoamFile
{
    version     2.0;
    format      ascii;
    class       volScalarField;
    location    "650";
    object      alphat;
}
// * * * * * * * * * * * * * * * * * * * * * * * * * * * * * * * * * * * * * //

dimensions      [1 -1 -1 0 0 0 0];

internalField   nonuniform List<scalar> 
78750
(
1.61392e-07
1.41457e-05
1.58097e-05
2.04736e-05
2.46471e-05
2.47859e-05
2.42916e-05
2.39727e-05
2.35591e-05
2.34732e-05
2.35617e-05
2.38697e-05
2.42774e-05
2.47842e-05
2.53721e-05
2.59648e-05
2.66114e-05
2.73166e-05
2.81052e-05
2.84091e-05
3.03911e-05
3.14731e-05
3.174e-05
3.33294e-05
3.30798e-05
3.27863e-05
3.25391e-05
3.15917e-05
3.00124e-05
2.74908e-05
2.54543e-05
2.30315e-05
1.94688e-05
1.67454e-05
1.88183e-07
1.42489e-07
2.25706e-05
1.33938e-05
7.95566e-06
8.82042e-06
1.64719e-05
2.71147e-05
3.27771e-05
3.73113e-05
4.09164e-05
4.31369e-05
4.61282e-05
4.88129e-05
5.04976e-05
5.34839e-05
5.60259e-05
5.86456e-05
6.12485e-05
6.40335e-05
6.64892e-05
6.28462e-05
5.97276e-05
6.66101e-05
7.61107e-05
7.77886e-05
7.23539e-05
6.51454e-05
4.54882e-05
4.48579e-05
4.55352e-05
3.11813e-05
2.34477e-05
2.06179e-05
2.64305e-05
3.82397e-07
3.27691e-08
5.14156e-06
4.57836e-06
5.94973e-06
9.80784e-06
1.76142e-05
2.99757e-05
4.66146e-05
6.10062e-05
6.93951e-05
7.36528e-05
7.58066e-05
7.7435e-05
7.9022e-05
8.00757e-05
8.08468e-05
8.12796e-05
8.12457e-05
8.08752e-05
8.06493e-05
8.01528e-05
7.55218e-05
6.43254e-05
5.66398e-05
5.64607e-05
6.00309e-05
5.55534e-05
3.87415e-05
3.73574e-05
3.41427e-05
2.22268e-05
1.73311e-05
1.88034e-05
3.84478e-05
4.306e-07
2.87155e-08
4.00721e-06
7.31252e-06
1.37234e-05
2.61396e-05
4.48922e-05
6.39178e-05
7.50762e-05
8.1984e-05
8.68375e-05
9.0036e-05
9.19983e-05
9.29883e-05
9.33084e-05
9.26491e-05
9.10984e-05
8.90918e-05
8.63727e-05
8.28764e-05
7.88006e-05
7.45829e-05
7.08502e-05
6.69905e-05
6.11065e-05
5.35825e-05
4.75848e-05
4.25461e-05
3.28572e-05
3.12275e-05
2.69982e-05
1.7748e-05
1.39806e-05
1.67792e-05
3.53307e-05
4.31935e-07
3.02837e-08
4.44164e-06
9.56223e-06
1.78975e-05
3.02976e-05
4.48575e-05
5.77224e-05
6.93138e-05
7.89428e-05
8.59347e-05
9.01605e-05
9.19016e-05
9.19726e-05
9.08086e-05
8.91347e-05
8.69787e-05
8.41264e-05
8.10259e-05
7.80403e-05
7.50124e-05
7.16542e-05
6.77849e-05
6.37406e-05
5.91687e-05
5.40025e-05
4.89926e-05
4.38978e-05
3.42033e-05
3.03232e-05
2.57056e-05
1.56473e-05
1.17529e-05
1.51125e-05
3.15927e-05
4.22888e-07
6.22745e-08
4.53535e-06
1.09379e-05
2.28531e-05
4.07177e-05
5.85019e-05
7.26589e-05
8.22957e-05
8.8448e-05
9.22574e-05
9.46175e-05
9.59544e-05
9.65852e-05
9.74081e-05
9.71939e-05
9.44255e-05
9.07435e-05
8.68808e-05
8.33817e-05
7.99459e-05
7.62357e-05
7.18941e-05
6.62752e-05
6.03407e-05
5.49475e-05
5.0111e-05
4.51499e-05
3.51195e-05
2.95996e-05
2.44825e-05
1.45969e-05
1.06003e-05
1.39019e-05
2.71432e-05
4.19086e-07
7.75541e-08
5.00187e-06
1.22545e-05
2.48739e-05
4.28579e-05
6.04457e-05
7.36049e-05
8.28863e-05
8.96748e-05
9.42416e-05
9.66963e-05
9.76521e-05
9.66667e-05
9.28674e-05
8.88311e-05
8.67205e-05
8.55743e-05
8.45222e-05
8.26222e-05
8.0157e-05
7.70459e-05
7.3188e-05
6.85604e-05
6.32788e-05
5.78111e-05
5.3265e-05
4.99716e-05
4.20183e-05
2.90583e-05
2.2647e-05
1.4213e-05
9.88384e-06
1.30888e-05
2.50013e-05
4.14191e-07
1.05143e-07
5.05174e-06
1.29833e-05
2.7993e-05
4.91927e-05
6.718e-05
7.87184e-05
8.60505e-05
9.04661e-05
9.26064e-05
9.37713e-05
9.40263e-05
9.4231e-05
9.36659e-05
9.17353e-05
9.03399e-05
8.89432e-05
8.66507e-05
8.43472e-05
8.20013e-05
7.90766e-05
7.53226e-05
7.11166e-05
6.65445e-05
6.16552e-05
5.69174e-05
5.19727e-05
4.20786e-05
2.89424e-05
2.26821e-05
1.44697e-05
9.88074e-06
1.27686e-05
2.36233e-05
4.17202e-07
1.22735e-07
5.3893e-06
1.41091e-05
3.01289e-05
5.11802e-05
6.85178e-05
7.99048e-05
8.74485e-05
9.21942e-05
9.50385e-05
9.64598e-05
9.51676e-05
9.20721e-05
9.09554e-05
9.17228e-05
9.09693e-05
8.85369e-05
8.52563e-05
8.24454e-05
8.06809e-05
7.95743e-05
7.829e-05
7.59621e-05
7.21019e-05
6.72718e-05
6.15483e-05
5.30527e-05
3.9634e-05
3.16346e-05
2.4554e-05
1.39803e-05
9.77762e-06
1.28363e-05
2.22731e-05
4.21308e-07
1.46324e-07
5.56046e-06
1.48408e-05
3.25091e-05
5.51757e-05
7.20255e-05
8.20571e-05
8.78447e-05
9.05053e-05
9.07943e-05
8.96982e-05
9.02378e-05
9.20541e-05
9.23164e-05
9.10242e-05
8.90324e-05
8.6325e-05
8.31996e-05
8.0763e-05
7.96729e-05
7.94593e-05
7.93626e-05
7.89712e-05
7.75886e-05
7.38898e-05
6.62393e-05
5.47513e-05
4.18135e-05
3.51685e-05
2.43725e-05
1.3747e-05
1.01224e-05
1.3435e-05
2.11901e-05
4.21121e-07
1.64221e-07
5.84943e-06
1.58983e-05
3.46751e-05
5.73048e-05
7.3439e-05
8.29471e-05
8.86483e-05
9.10877e-05
9.05474e-05
9.00618e-05
9.00127e-05
8.90809e-05
8.79342e-05
8.70913e-05
8.64338e-05
8.52726e-05
8.31207e-05
8.11874e-05
8.08345e-05
8.15657e-05
8.20701e-05
8.19002e-05
8.06925e-05
7.75385e-05
7.07662e-05
5.91653e-05
4.54759e-05
3.71608e-05
2.36469e-05
1.34473e-05
1.04302e-05
1.43911e-05
1.91347e-05
4.17478e-07
1.87185e-07
6.12185e-06
1.68167e-05
3.70236e-05
6.05369e-05
7.58302e-05
8.37271e-05
8.64312e-05
8.60082e-05
8.68579e-05
8.71106e-05
8.58241e-05
8.44093e-05
8.39029e-05
8.4289e-05
8.50938e-05
8.55076e-05
8.43353e-05
8.24917e-05
8.2524e-05
8.42262e-05
8.57152e-05
8.64215e-05
8.58898e-05
8.31406e-05
7.6512e-05
6.4085e-05
4.92146e-05
3.88422e-05
2.39283e-05
1.36915e-05
1.08479e-05
1.54966e-05
1.74123e-05
4.1092e-07
2.03813e-07
6.41035e-06
1.78615e-05
3.92804e-05
6.26374e-05
7.68083e-05
8.39634e-05
8.5756e-05
8.48863e-05
8.37646e-05
8.11198e-05
7.95142e-05
7.93612e-05
8.05464e-05
8.2701e-05
8.51931e-05
8.71847e-05
8.75907e-05
8.62496e-05
8.59274e-05
8.76893e-05
8.94731e-05
9.02954e-05
8.94876e-05
8.58676e-05
7.82388e-05
6.65704e-05
5.66956e-05
3.98245e-05
2.3025e-05
1.41197e-05
1.15215e-05
1.70513e-05
1.57371e-05
4.0535e-07
2.25223e-07
6.71966e-06
1.89383e-05
4.20709e-05
6.57618e-05
7.82748e-05
8.20406e-05
8.1557e-05
8.0488e-05
7.74028e-05
7.52105e-05
7.47659e-05
7.62295e-05
7.91753e-05
8.29475e-05
8.68039e-05
8.99154e-05
9.13257e-05
9.06438e-05
8.99545e-05
9.1299e-05
9.34728e-05
9.45798e-05
9.37627e-05
9.0093e-05
8.27746e-05
7.13685e-05
5.99938e-05
4.07954e-05
2.36467e-05
1.4653e-05
1.22611e-05
1.88109e-05
1.44406e-05
4.00991e-07
2.42029e-07
6.99664e-06
2.00853e-05
4.48614e-05
6.78436e-05
7.83812e-05
8.02403e-05
7.70435e-05
7.3119e-05
7.00235e-05
6.93173e-05
7.11374e-05
7.48671e-05
7.97466e-05
8.50248e-05
8.99692e-05
9.38603e-05
9.60242e-05
9.60757e-05
9.47739e-05
9.50896e-05
9.72638e-05
9.85949e-05
9.80835e-05
9.45537e-05
8.62188e-05
7.68684e-05
5.96742e-05
3.92763e-05
2.43062e-05
1.55469e-05
1.33111e-05
2.11633e-05
1.33146e-05
3.99253e-07
2.68847e-07
7.31003e-06
2.15374e-05
4.89553e-05
7.11014e-05
7.74187e-05
7.51897e-05
7.0144e-05
6.5065e-05
6.34688e-05
6.54475e-05
6.9991e-05
7.59962e-05
8.25439e-05
8.89182e-05
9.45345e-05
9.88843e-05
0.000101469
0.000101811
0.000100355
0.000100302
0.000102197
0.00010315
0.000102161
9.8402e-05
9.01188e-05
7.94558e-05
6.01019e-05
3.95025e-05
2.50031e-05
1.65179e-05
1.45143e-05
2.37559e-05
1.25075e-05
3.99965e-07
2.99684e-07
7.60585e-06
2.31887e-05
5.29976e-05
7.27263e-05
7.44003e-05
6.77308e-05
6.0776e-05
5.71123e-05
5.8284e-05
6.35039e-05
7.1104e-05
7.95006e-05
8.75223e-05
9.46037e-05
0.000100419
0.000104793
0.000107316
0.000107659
0.000106266
0.000105936
0.000107069
0.000107194
0.000105568
0.000101937
9.51884e-05
7.85098e-05
5.7441e-05
3.93858e-05
2.56862e-05
1.75998e-05
1.60628e-05
2.71068e-05
1.18056e-05
4.00912e-07
3.46059e-07
8.03171e-06
2.56647e-05
5.8552e-05
7.25356e-05
6.85603e-05
5.99716e-05
5.20869e-05
5.09405e-05
5.58229e-05
6.45539e-05
7.46598e-05
8.42311e-05
9.25798e-05
9.96486e-05
0.000105554
0.000109989
0.000112653
0.000113325
0.000112353
0.000111043
0.000110804
0.000110743
0.000108888
0.000104454
9.54864e-05
7.72637e-05
5.63216e-05
3.88875e-05
2.60406e-05
1.86207e-05
1.7859e-05
3.11016e-05
1.13211e-05
4.00821e-07
3.91903e-07
8.44251e-06
2.83872e-05
6.24719e-05
7.0642e-05
6.39521e-05
5.23903e-05
4.64376e-05
4.75729e-05
5.48152e-05
6.55589e-05
7.70712e-05
8.74088e-05
9.59532e-05
0.000102855
0.00010842
0.000112771
0.000115698
0.000116997
0.000116444
0.000114659
0.000113755
0.000113895
0.000112434
0.000106295
9.22182e-05
7.35196e-05
5.47818e-05
3.84192e-05
2.64017e-05
1.96702e-05
1.98486e-05
3.53656e-05
1.09504e-05
3.99162e-07
4.2848e-07
8.74731e-06
3.07472e-05
6.47056e-05
6.9673e-05
6.02076e-05
5.0096e-05
4.57521e-05
4.70685e-05
5.23024e-05
6.11348e-05
7.24199e-05
8.3898e-05
9.36393e-05
0.000101419
0.000107669
0.000112501
0.000115823
0.000117448
0.000117451
0.000116287
0.000115553
0.000115018
0.000112145
0.000104076
8.9415e-05
7.13676e-05
5.34992e-05
3.8096e-05
2.68851e-05
2.08097e-05
2.1928e-05
3.9152e-05
1.07315e-05
3.98313e-07
4.34166e-07
8.776e-06
3.07605e-05
6.41954e-05
6.79151e-05
5.94311e-05
5.22488e-05
4.84385e-05
4.7706e-05
5.03546e-05
5.61724e-05
6.42796e-05
7.40637e-05
8.45727e-05
9.50768e-05
0.000103278
0.000109315
0.000113572
0.000116144
0.000117022
0.000116553
0.000115836
0.000114825
0.000110699
0.000100905
8.60467e-05
6.89996e-05
5.23205e-05
3.79713e-05
2.75113e-05
2.20641e-05
2.41431e-05
4.23557e-05
1.06243e-05
3.9934e-07
4.33244e-07
8.74234e-06
3.04125e-05
6.28967e-05
6.87871e-05
6.41913e-05
5.77573e-05
5.29237e-05
5.01322e-05
4.93074e-05
5.09485e-05
5.58383e-05
6.34718e-05
7.29513e-05
8.27679e-05
9.24715e-05
0.000101743
0.000108454
0.000112401
0.000114423
0.00011493
0.000114673
0.000113274
0.000107751
9.67641e-05
8.22838e-05
6.64449e-05
5.1068e-05
3.78759e-05
2.82126e-05
2.34318e-05
2.64982e-05
4.49387e-05
1.05832e-05
4.03065e-07
4.15849e-07
8.47065e-06
2.85514e-05
5.8872e-05
6.83886e-05
6.64657e-05
6.22708e-05
5.77558e-05
5.42344e-05
5.17506e-05
5.0386e-05
5.06122e-05
5.33164e-05
5.90772e-05
6.74625e-05
7.73472e-05
8.6834e-05
9.53381e-05
0.000102809
0.000107731
0.000109883
0.000110256
0.00010834
0.000102528
9.17823e-05
7.78866e-05
6.32476e-05
4.93703e-05
3.75028e-05
2.88178e-05
2.4916e-05
2.91107e-05
4.70408e-05
1.05942e-05
4.08822e-07
3.79154e-07
8.17157e-06
2.54398e-05
5.3381e-05
6.65059e-05
6.83721e-05
6.55525e-05
6.21967e-05
5.86514e-05
5.57804e-05
5.35255e-05
5.17901e-05
5.07421e-05
5.09852e-05
5.34364e-05
5.87048e-05
6.66794e-05
7.61685e-05
8.49491e-05
9.24491e-05
9.80309e-05
0.000100532
9.92623e-05
9.45997e-05
8.52176e-05
7.27673e-05
5.9877e-05
4.7441e-05
3.67628e-05
2.92092e-05
2.63492e-05
3.17415e-05
4.84876e-05
1.06207e-05
4.16005e-07
3.33561e-07
7.94001e-06
2.32641e-05
4.86177e-05
6.50882e-05
7.01468e-05
6.97279e-05
6.69158e-05
6.34007e-05
5.99857e-05
5.71149e-05
5.47725e-05
5.28381e-05
5.11707e-05
4.99363e-05
4.97547e-05
5.13911e-05
5.55534e-05
6.24426e-05
7.07139e-05
7.80842e-05
8.34174e-05
8.67821e-05
8.40681e-05
7.60366e-05
6.65385e-05
5.58359e-05
4.51543e-05
3.59005e-05
2.93933e-05
2.75936e-05
3.41229e-05
4.94018e-05
1.07089e-05
4.27043e-07
2.90624e-07
7.75717e-06
2.2022e-05
4.59933e-05
6.50921e-05
7.24666e-05
7.38826e-05
7.22121e-05
6.90155e-05
6.52463e-05
6.148e-05
5.8111e-05
5.52678e-05
5.29561e-05
5.10974e-05
4.9564e-05
4.83177e-05
4.77053e-05
4.83951e-05
5.10991e-05
5.58983e-05
6.19508e-05
6.96047e-05
7.13165e-05
6.59332e-05
5.96071e-05
5.14577e-05
4.27374e-05
3.48447e-05
2.94609e-05
2.85943e-05
3.60351e-05
4.9928e-05
1.08382e-05
4.44431e-07
2.64901e-07
7.55888e-06
2.14461e-05
4.5819e-05
6.59234e-05
7.42801e-05
7.75956e-05
7.74335e-05
7.49508e-05
7.15484e-05
6.79512e-05
6.4147e-05
6.05427e-05
5.72266e-05
5.38857e-05
5.12848e-05
4.9526e-05
4.77949e-05
4.61603e-05
4.47783e-05
4.40549e-05
4.52293e-05
5.22821e-05
5.71777e-05
5.43448e-05
5.17865e-05
4.67249e-05
4.0079e-05
3.37349e-05
2.93424e-05
2.92646e-05
3.74589e-05
5.02589e-05
1.10091e-05
4.69749e-07
2.63288e-07
7.38813e-06
2.04912e-05
4.38897e-05
6.54375e-05
7.62829e-05
8.05522e-05
8.07204e-05
7.80078e-05
7.32221e-05
6.82836e-05
6.62761e-05
6.63044e-05
6.65483e-05
6.58467e-05
6.20706e-05
5.58595e-05
5.12387e-05
4.80565e-05
4.47209e-05
4.10249e-05
3.82786e-05
4.23238e-05
4.66412e-05
4.46264e-05
4.42272e-05
4.17333e-05
3.72476e-05
3.23247e-05
2.90178e-05
2.97788e-05
3.85559e-05
5.04266e-05
1.11308e-05
5.01324e-07
2.84331e-07
7.33774e-06
2.04803e-05
4.52807e-05
6.83754e-05
7.87254e-05
8.17047e-05
7.9524e-05
7.3856e-05
6.97527e-05
6.91385e-05
6.93416e-05
6.99108e-05
7.06324e-05
7.13359e-05
7.17598e-05
7.01232e-05
6.38423e-05
5.59907e-05
4.88804e-05
4.1892e-05
3.62876e-05
3.78464e-05
3.97959e-05
3.70327e-05
3.74942e-05
3.69185e-05
3.41689e-05
3.06418e-05
2.84366e-05
3.0003e-05
3.93992e-05
5.05438e-05
1.11395e-05
5.31383e-07
3.30353e-07
7.39211e-06
2.13012e-05
4.85279e-05
7.10651e-05
7.88798e-05
7.84081e-05
7.20935e-05
6.7641e-05
6.64456e-05
6.75737e-05
7.08588e-05
7.4566e-05
7.69622e-05
7.75985e-05
7.72379e-05
7.69605e-05
7.45308e-05
6.77755e-05
5.81602e-05
4.73075e-05
3.80829e-05
3.60264e-05
3.64358e-05
3.31894e-05
3.19665e-05
3.22594e-05
3.10833e-05
2.88138e-05
2.75585e-05
2.99694e-05
4.01612e-05
5.02798e-05
1.0977e-05
5.52062e-07
4.01226e-07
7.74349e-06
2.29823e-05
5.25213e-05
7.27271e-05
7.639e-05
7.19981e-05
6.68222e-05
6.24567e-05
6.14504e-05
6.52277e-05
7.24564e-05
8.04625e-05
8.6811e-05
9.00821e-05
8.98554e-05
8.7004e-05
8.35475e-05
7.75821e-05
6.76273e-05
5.56748e-05
4.41036e-05
3.56851e-05
3.34364e-05
3.13494e-05
2.85847e-05
2.85558e-05
2.81255e-05
2.69726e-05
2.66165e-05
2.9903e-05
4.10518e-05
4.96539e-05
1.0694e-05
5.606e-07
4.74846e-07
8.11103e-06
2.53712e-05
5.73953e-05
7.35641e-05
7.50111e-05
7.04787e-05
6.32497e-05
5.84321e-05
5.89176e-05
6.43765e-05
7.36618e-05
8.41318e-05
9.24603e-05
9.75642e-05
9.9236e-05
9.79486e-05
9.39622e-05
8.77131e-05
7.81116e-05
6.52937e-05
5.15e-05
3.96994e-05
3.35352e-05
2.90722e-05
2.59154e-05
2.54927e-05
2.54285e-05
2.50765e-05
2.55747e-05
2.97256e-05
4.19036e-05
4.8425e-05
1.03701e-05
5.58972e-07
4.97557e-07
8.24421e-06
2.58795e-05
5.78546e-05
7.39995e-05
7.47059e-05
6.89018e-05
6.25804e-05
5.91176e-05
5.88113e-05
6.18607e-05
6.85458e-05
7.83058e-05
8.96751e-05
9.90771e-05
0.000103425
0.000103403
0.000100032
9.38979e-05
8.50522e-05
7.40545e-05
6.06721e-05
4.67425e-05
3.63705e-05
2.85915e-05
2.41094e-05
2.31285e-05
2.31988e-05
2.33764e-05
2.45545e-05
2.95828e-05
4.28237e-05
4.67623e-05
9.97455e-06
5.47465e-07
4.96644e-07
8.1911e-06
2.57377e-05
5.7363e-05
7.29348e-05
7.42482e-05
7.09585e-05
6.66009e-05
6.25908e-05
6.00967e-05
5.99308e-05
6.25272e-05
6.84148e-05
7.73849e-05
8.78525e-05
9.83487e-05
0.000104307
0.000103736
9.84224e-05
8.99417e-05
8.01381e-05
6.82848e-05
5.40443e-05
4.08628e-05
3.06953e-05
2.40874e-05
2.14391e-05
2.13037e-05
2.18765e-05
2.3707e-05
2.96559e-05
4.39395e-05
4.48369e-05
9.65634e-06
5.36981e-07
4.65866e-07
7.85976e-06
2.43433e-05
5.38087e-05
7.02392e-05
7.43483e-05
7.35225e-05
7.07903e-05
6.73149e-05
6.3464e-05
5.98973e-05
5.78649e-05
5.86961e-05
6.31159e-05
7.12158e-05
8.16509e-05
9.28427e-05
0.000100713
0.000100537
9.43239e-05
8.54673e-05
7.44703e-05
6.02572e-05
4.50604e-05
3.37269e-05
2.53215e-05
2.08836e-05
2.00056e-05
2.06602e-05
2.30722e-05
2.99266e-05
4.50436e-05
4.31028e-05
9.45762e-06
5.35232e-07
4.20111e-07
7.54116e-06
2.22225e-05
4.86691e-05
6.61667e-05
7.18463e-05
7.25438e-05
7.11034e-05
6.87872e-05
6.5865e-05
6.23909e-05
5.84782e-05
5.4957e-05
5.33847e-05
5.54292e-05
6.21255e-05
7.26689e-05
8.502e-05
9.42469e-05
9.44881e-05
8.87979e-05
7.90672e-05
6.52367e-05
4.95745e-05
3.76223e-05
2.73689e-05
2.1033e-05
1.92495e-05
1.97761e-05
2.25278e-05
3.00975e-05
4.57478e-05
4.15932e-05
9.30005e-06
5.38469e-07
3.79429e-07
7.25381e-06
2.07835e-05
4.58253e-05
6.4765e-05
7.13337e-05
7.26405e-05
7.15859e-05
6.94942e-05
6.69857e-05
6.41538e-05
6.079e-05
5.6672e-05
5.22749e-05
4.90475e-05
4.91209e-05
5.44185e-05
6.53551e-05
7.91238e-05
8.88523e-05
8.90833e-05
8.12285e-05
6.86731e-05
5.74355e-05
4.34607e-05
2.97442e-05
2.20124e-05
1.91039e-05
1.91991e-05
2.21257e-05
3.02399e-05
4.60802e-05
4.06294e-05
9.24523e-06
5.5567e-07
3.68992e-07
7.14887e-06
2.02682e-05
4.47404e-05
6.52141e-05
7.35552e-05
7.58607e-05
7.53016e-05
7.32415e-05
7.03044e-05
6.6793e-05
6.28178e-05
5.83164e-05
5.35111e-05
4.86615e-05
4.52943e-05
4.57464e-05
5.16826e-05
6.37833e-05
7.85236e-05
8.72537e-05
8.53219e-05
7.56532e-05
6.61441e-05
4.94875e-05
3.33366e-05
2.39647e-05
1.95273e-05
1.89856e-05
2.18782e-05
3.02854e-05
4.62066e-05
4.00122e-05
9.22637e-06
5.82825e-07
3.72994e-07
6.96245e-06
1.96371e-05
4.4081e-05
6.57885e-05
7.51795e-05
7.85657e-05
7.89246e-05
7.7404e-05
7.44152e-05
7.01298e-05
6.49419e-05
5.79945e-05
5.10825e-05
4.6883e-05
4.54719e-05
4.62301e-05
5.01266e-05
5.9229e-05
7.37848e-05
8.73026e-05
9.07063e-05
8.67966e-05
7.61506e-05
5.60574e-05
3.82435e-05
2.69029e-05
2.08583e-05
1.91987e-05
2.17104e-05
3.02786e-05
4.63712e-05
3.94325e-05
9.16766e-06
6.11543e-07
4.15835e-07
7.08004e-06
1.99566e-05
4.45539e-05
6.59365e-05
7.53575e-05
7.93012e-05
8.05777e-05
7.9616e-05
7.62782e-05
7.05742e-05
6.23713e-05
5.43628e-05
4.83787e-05
4.52904e-05
4.56768e-05
4.88729e-05
5.4987e-05
6.4997e-05
8.01355e-05
9.66994e-05
0.000105519
0.000103592
8.47927e-05
6.07678e-05
4.25251e-05
2.98248e-05
2.24978e-05
2.00159e-05
2.23664e-05
3.14682e-05
4.76251e-05
3.85387e-05
9.00665e-06
6.20449e-07
4.95416e-07
7.43986e-06
2.10984e-05
4.62753e-05
6.6546e-05
7.58288e-05
8.00155e-05
8.0841e-05
7.91992e-05
7.54484e-05
6.8681e-05
5.8918e-05
4.8549e-05
4.16607e-05
4.04369e-05
4.49532e-05
5.40384e-05
6.62074e-05
8.14336e-05
9.77966e-05
0.000112256
0.00011854
0.000108818
8.7741e-05
6.47873e-05
4.57678e-05
3.22626e-05
2.4209e-05
2.11633e-05
2.3124e-05
3.19774e-05
4.85175e-05
3.66124e-05
8.75106e-06
6.14051e-07
5.83364e-07
7.82663e-06
2.27937e-05
4.78849e-05
6.71553e-05
7.64541e-05
8.08295e-05
8.18194e-05
7.95264e-05
7.31706e-05
6.23007e-05
5.0138e-05
4.1666e-05
3.86481e-05
4.16396e-05
5.04633e-05
6.24587e-05
7.60035e-05
8.94235e-05
0.000102614
0.000117359
0.000119525
0.000104051
8.43664e-05
6.372e-05
4.63309e-05
3.34934e-05
2.5403e-05
2.20756e-05
2.41421e-05
3.41883e-05
5.05108e-05
3.64197e-05
8.41944e-06
5.77385e-07
5.9917e-07
7.9589e-06
2.34025e-05
4.88265e-05
6.70428e-05
7.55228e-05
7.89047e-05
7.86338e-05
7.50155e-05
6.83182e-05
6.09323e-05
5.37351e-05
4.64061e-05
4.20426e-05
4.22092e-05
4.64014e-05
5.5479e-05
6.84533e-05
8.25681e-05
9.61811e-05
0.000107577
0.000112412
9.76107e-05
7.62653e-05
5.9105e-05
4.44591e-05
3.33804e-05
2.62657e-05
2.34739e-05
2.56789e-05
3.56787e-05
5.23472e-05
3.36173e-05
8.06061e-06
5.21099e-07
5.62767e-07
7.89698e-06
2.34397e-05
4.73135e-05
6.464e-05
7.29282e-05
7.61688e-05
7.66692e-05
7.51583e-05
7.28278e-05
6.78169e-05
6.1068e-05
5.49195e-05
4.93482e-05
4.49587e-05
4.28052e-05
4.39076e-05
4.86357e-05
5.84121e-05
7.17511e-05
8.47293e-05
9.37778e-05
8.52808e-05
6.76205e-05
5.36694e-05
4.17918e-05
3.25307e-05
2.6604e-05
2.4444e-05
2.70609e-05
3.79334e-05
5.37656e-05
3.21238e-05
7.79113e-06
4.74158e-07
4.54251e-07
7.52996e-06
2.18715e-05
4.5671e-05
6.4676e-05
7.38939e-05
7.7963e-05
7.94056e-05
7.90603e-05
7.72365e-05
7.35366e-05
7.02686e-05
6.71756e-05
6.17709e-05
5.48389e-05
4.81115e-05
4.2968e-05
4.0226e-05
4.05412e-05
4.45379e-05
5.2246e-05
6.25394e-05
6.44639e-05
5.70249e-05
4.83476e-05
3.97819e-05
3.23963e-05
2.73952e-05
2.5712e-05
2.89878e-05
4.03735e-05
5.51529e-05
3.27027e-05
8.03061e-06
4.69623e-07
3.85418e-07
7.10557e-06
2.03039e-05
4.42384e-05
6.56369e-05
7.66804e-05
8.1529e-05
8.29639e-05
8.23258e-05
8.10877e-05
8.09454e-05
7.97337e-05
7.6565e-05
7.21589e-05
6.6654e-05
6.02691e-05
5.3415e-05
4.66848e-05
4.11604e-05
3.78175e-05
3.71221e-05
3.91098e-05
4.40871e-05
4.62145e-05
4.25159e-05
3.74805e-05
3.20716e-05
2.77615e-05
2.62965e-05
2.98306e-05
4.13418e-05
5.59567e-05
3.31618e-05
8.20908e-06
4.87063e-07
3.53643e-07
6.79172e-06
1.91312e-05
4.27908e-05
6.5377e-05
7.70783e-05
8.24761e-05
8.46957e-05
8.55286e-05
8.58971e-05
8.52493e-05
8.42305e-05
8.26487e-05
8.06946e-05
7.7762e-05
7.28838e-05
6.60215e-05
5.77593e-05
4.91449e-05
4.13882e-05
3.53817e-05
3.20109e-05
3.37212e-05
3.6073e-05
3.53478e-05
3.40896e-05
3.06173e-05
2.75682e-05
2.68262e-05
3.05508e-05
4.1621e-05
5.53193e-05
3.50309e-05
8.55567e-06
5.35305e-07
3.43962e-07
6.60886e-06
1.86294e-05
4.14923e-05
6.38189e-05
7.66436e-05
8.36955e-05
8.7623e-05
8.90735e-05
8.86768e-05
8.84221e-05
8.85162e-05
8.82788e-05
8.71196e-05
8.52602e-05
8.27265e-05
7.8703e-05
7.22944e-05
6.26648e-05
5.11088e-05
4.05908e-05
3.2905e-05
3.12376e-05
3.13146e-05
2.93232e-05
2.90064e-05
2.85057e-05
2.70762e-05
2.67277e-05
3.0291e-05
4.07722e-05
5.4628e-05
3.71197e-05
8.91687e-06
5.78436e-07
3.45078e-07
6.4502e-06
1.80937e-05
4.14983e-05
6.5824e-05
7.95148e-05
8.67037e-05
9.01332e-05
9.07457e-05
9.03931e-05
9.02268e-05
9.01881e-05
9.00226e-05
8.95914e-05
8.8566e-05
8.67253e-05
8.39332e-05
7.99071e-05
7.42782e-05
6.53535e-05
5.25061e-05
3.97303e-05
3.05725e-05
2.81091e-05
2.72546e-05
2.57833e-05
2.61695e-05
2.58138e-05
2.60804e-05
2.96209e-05
3.98293e-05
5.40805e-05
3.82998e-05
9.13186e-06
6.20788e-07
3.58104e-07
6.38913e-06
1.82096e-05
4.2808e-05
6.73874e-05
7.99288e-05
8.61134e-05
8.91688e-05
9.06908e-05
9.12959e-05
9.18386e-05
9.24835e-05
9.28583e-05
9.29788e-05
9.26018e-05
9.13719e-05
8.90185e-05
8.52151e-05
7.9854e-05
7.2695e-05
6.28613e-05
4.94687e-05
3.63149e-05
3.06471e-05
2.63015e-05
2.31528e-05
2.35466e-05
2.40791e-05
2.5363e-05
2.92616e-05
3.9122e-05
5.34309e-05
3.96539e-05
9.32421e-06
6.56306e-07
3.98008e-07
6.52991e-06
1.8777e-05
4.39858e-05
6.75881e-05
7.92663e-05
8.51001e-05
8.73801e-05
8.91903e-05
9.08407e-05
9.1767e-05
9.28351e-05
9.42569e-05
9.59e-05
9.75581e-05
9.8838e-05
9.90086e-05
9.73054e-05
9.26369e-05
8.48154e-05
7.34509e-05
5.91184e-05
4.46201e-05
3.65321e-05
2.81425e-05
2.20483e-05
2.15296e-05
2.27772e-05
2.44127e-05
2.84841e-05
3.84133e-05
5.3306e-05
3.99641e-05
9.40815e-06
6.87851e-07
4.43129e-07
6.70642e-06
1.9683e-05
4.6323e-05
6.89754e-05
7.92391e-05
8.41635e-05
8.72816e-05
8.96334e-05
9.08269e-05
9.13838e-05
9.1836e-05
9.27592e-05
9.43688e-05
9.67208e-05
9.97902e-05
0.000102743
0.000104214
0.000102872
9.83059e-05
8.96669e-05
7.49128e-05
5.71667e-05
4.39853e-05
3.1073e-05
2.25109e-05
2.03595e-05
2.13529e-05
2.35802e-05
2.83464e-05
3.88069e-05
5.38681e-05
3.97915e-05
9.32106e-06
6.94765e-07
4.96658e-07
7.03458e-06
2.10242e-05
4.82528e-05
6.96676e-05
7.97067e-05
8.4709e-05
8.65876e-05
8.70534e-05
8.74797e-05
8.81274e-05
8.91283e-05
9.06575e-05
9.31621e-05
9.69761e-05
0.00010151
0.0001059
0.000108521
0.000108279
0.000105999
0.000100821
8.91575e-05
7.16627e-05
5.33649e-05
3.66142e-05
2.44598e-05
1.98219e-05
1.99583e-05
2.24945e-05
2.7921e-05
3.91077e-05
5.4779e-05
3.77263e-05
9.19503e-06
6.89892e-07
5.14496e-07
7.12644e-06
2.12285e-05
4.83256e-05
6.93049e-05
7.80723e-05
8.11535e-05
8.1948e-05
8.24687e-05
8.29739e-05
8.35707e-05
8.4431e-05
8.60802e-05
8.93263e-05
9.46709e-05
0.000101801
0.000109299
0.000114937
0.000116538
0.000115963
0.000112689
0.000102207
8.4079e-05
6.00546e-05
3.87031e-05
2.53068e-05
2.00457e-05
1.9543e-05
2.16779e-05
2.76362e-05
4.01073e-05
5.57645e-05
3.6656e-05
8.87536e-06
6.50487e-07
5.10933e-07
7.19689e-06
2.18416e-05
4.93904e-05
6.82592e-05
7.52532e-05
7.76395e-05
7.84555e-05
7.88702e-05
7.91807e-05
7.92221e-05
7.91002e-05
7.94966e-05
8.16695e-05
8.69591e-05
9.56816e-05
0.000106326
0.000115818
0.000121397
0.000124122
0.000122677
0.000113035
9.54843e-05
7.00951e-05
4.48185e-05
2.78395e-05
1.98425e-05
1.87344e-05
2.11879e-05
2.71347e-05
3.97885e-05
5.53808e-05
3.53752e-05
8.75889e-06
6.28705e-07
4.72378e-07
7.09402e-06
2.14534e-05
4.80975e-05
6.70823e-05
7.45896e-05
7.71623e-05
7.7648e-05
7.74464e-05
7.71455e-05
7.66829e-05
7.58061e-05
7.45831e-05
7.41559e-05
7.64637e-05
8.31773e-05
9.46178e-05
0.000108702
0.000120994
0.000128973
0.00013022
0.0001214
0.000104591
8.35846e-05
5.65372e-05
3.50034e-05
2.30875e-05
1.85182e-05
1.9953e-05
2.61895e-05
3.86048e-05
5.56271e-05
3.50047e-05
8.75151e-06
6.39038e-07
4.65461e-07
7.10315e-06
2.13058e-05
4.74283e-05
6.67848e-05
7.46029e-05
7.71315e-05
7.74698e-05
7.7219e-05
7.69573e-05
7.66413e-05
7.59533e-05
7.46225e-05
7.30029e-05
7.26295e-05
7.57953e-05
8.44256e-05
9.89418e-05
0.000116791
0.000132584
0.000139826
0.000133106
0.000113097
9.34566e-05
6.71621e-05
4.29759e-05
2.80685e-05
2.06728e-05
1.97402e-05
2.52281e-05
3.97965e-05
5.77097e-05
3.33558e-05
8.6509e-06
6.61685e-07
4.68777e-07
7.12586e-06
2.14897e-05
4.78905e-05
6.67355e-05
7.434e-05
7.69864e-05
7.76791e-05
7.7926e-05
7.81822e-05
7.82474e-05
7.7635e-05
7.59962e-05
7.37788e-05
7.24501e-05
7.39398e-05
8.02756e-05
9.28771e-05
0.000110908
0.00012941
0.000140396
0.000136313
0.00011835
8.88049e-05
6.17379e-05
4.26903e-05
2.96776e-05
2.26734e-05
2.2125e-05
2.97088e-05
4.75295e-05
5.92201e-05
3.19532e-05
8.55644e-06
6.56466e-07
4.61078e-07
7.27698e-06
2.19309e-05
4.79128e-05
6.60477e-05
7.34299e-05
7.60357e-05
7.68733e-05
7.74514e-05
7.82136e-05
7.89362e-05
7.88919e-05
7.74736e-05
7.43285e-05
7.04383e-05
6.86814e-05
7.20333e-05
8.2218e-05
9.87676e-05
0.00011824
0.000132809
0.000131078
0.000107746
7.68794e-05
5.34357e-05
3.86028e-05
2.94002e-05
2.49001e-05
2.61184e-05
3.53487e-05
5.20655e-05
5.85802e-05
2.88385e-05
8.09754e-06
5.8181e-07
4.39291e-07
7.19073e-06
2.19511e-05
4.91129e-05
6.65726e-05
7.31276e-05
7.50019e-05
7.52254e-05
7.58328e-05
7.72696e-05
7.88378e-05
7.96576e-05
7.88446e-05
7.59882e-05
7.17191e-05
6.78835e-05
6.71078e-05
7.17362e-05
8.3527e-05
0.000101079
0.000118137
0.000120003
9.8472e-05
6.99438e-05
4.8555e-05
3.57745e-05
2.90208e-05
2.68504e-05
2.97401e-05
4.04775e-05
5.66841e-05
5.7687e-05
2.74669e-05
7.90886e-06
5.3214e-07
4.39986e-07
7.21261e-06
2.19309e-05
4.91302e-05
6.67562e-05
7.1969e-05
7.23841e-05
7.22057e-05
7.34237e-05
7.61264e-05
7.95462e-05
8.21352e-05
8.28344e-05
8.10532e-05
7.67378e-05
7.12169e-05
6.7346e-05
6.80339e-05
7.51123e-05
8.90368e-05
0.000104224
0.000108693
9.56182e-05
7.14748e-05
4.98894e-05
3.64584e-05
3.01193e-05
2.86985e-05
3.24071e-05
4.35583e-05
5.77809e-05
5.78662e-05
2.82206e-05
7.9846e-06
5.25379e-07
4.43315e-07
7.3331e-06
2.22945e-05
5.04164e-05
6.65926e-05
6.96632e-05
6.8681e-05
6.81721e-05
7.03808e-05
7.50234e-05
8.05292e-05
8.50577e-05
8.71806e-05
8.61499e-05
8.19317e-05
7.56676e-05
6.99063e-05
6.7455e-05
7.03266e-05
7.97503e-05
9.25386e-05
0.000100853
9.66077e-05
7.76467e-05
5.52691e-05
3.94897e-05
3.14836e-05
2.97026e-05
3.36095e-05
4.36663e-05
5.65203e-05
5.85281e-05
2.89565e-05
8.06986e-06
5.37113e-07
4.45882e-07
7.34387e-06
2.27377e-05
5.14706e-05
6.58592e-05
6.69884e-05
6.385e-05
6.26614e-05
6.57589e-05
7.23261e-05
8.01056e-05
8.68649e-05
9.06888e-05
9.08273e-05
8.73625e-05
8.1126e-05
7.43713e-05
6.99281e-05
7.02989e-05
7.53008e-05
8.41085e-05
9.45332e-05
9.75933e-05
8.5675e-05
6.38238e-05
4.45685e-05
3.35642e-05
3.01719e-05
3.32918e-05
4.28378e-05
5.55982e-05
5.88834e-05
3.02967e-05
8.32552e-06
5.58815e-07
4.65396e-07
7.463e-06
2.37334e-05
5.32283e-05
6.54924e-05
6.38861e-05
5.83173e-05
5.65328e-05
6.05427e-05
6.92621e-05
7.98541e-05
8.91775e-05
9.5163e-05
9.70532e-05
9.44154e-05
8.80624e-05
8.03628e-05
7.42262e-05
7.21982e-05
7.43044e-05
8.00459e-05
8.85853e-05
9.50168e-05
9.13043e-05
7.41119e-05
5.28937e-05
3.81383e-05
3.1465e-05
3.2002e-05
4.00035e-05
5.35651e-05
5.9204e-05
3.14046e-05
8.45922e-06
5.77414e-07
4.81969e-07
7.5865e-06
2.4519e-05
5.44255e-05
6.49193e-05
6.03146e-05
5.36506e-05
5.17307e-05
5.62399e-05
6.62607e-05
7.89936e-05
9.07012e-05
9.85523e-05
0.000101469
9.9563e-05
9.37521e-05
8.59208e-05
7.88486e-05
7.51365e-05
7.54256e-05
7.86772e-05
8.42684e-05
9.10474e-05
9.38702e-05
8.53424e-05
6.55445e-05
4.69713e-05
3.58367e-05
3.23715e-05
3.67485e-05
4.94471e-05
5.95049e-05
3.40773e-05
8.7604e-06
6.2012e-07
4.93559e-07
7.64679e-06
2.49131e-05
5.5245e-05
6.3827e-05
5.82084e-05
5.09265e-05
4.78141e-05
5.1061e-05
6.07173e-05
7.46631e-05
8.90608e-05
9.99683e-05
0.000105332
0.000104886
9.94782e-05
9.12451e-05
8.3227e-05
7.8008e-05
7.69865e-05
7.83958e-05
8.17561e-05
8.79518e-05
9.35146e-05
9.23466e-05
7.95288e-05
5.83757e-05
4.20899e-05
3.48929e-05
3.60334e-05
4.58031e-05
5.8903e-05
3.85525e-05
9.11709e-06
6.7633e-07
4.97432e-07
7.68553e-06
2.55288e-05
5.52729e-05
6.2663e-05
5.79114e-05
5.10982e-05
4.65332e-05
4.64994e-05
5.32041e-05
6.68792e-05
8.37229e-05
9.86001e-05
0.000107567
0.000109592
0.000105185
9.65781e-05
8.74508e-05
8.0947e-05
7.75279e-05
7.71447e-05
8.04047e-05
8.64061e-05
9.23523e-05
9.37391e-05
8.64769e-05
7.05207e-05
5.15838e-05
3.93294e-05
3.65863e-05
4.41698e-05
6.0706e-05
3.88343e-05
9.20988e-06
6.97607e-07
4.94338e-07
7.69716e-06
2.57473e-05
5.41801e-05
6.25832e-05
5.96842e-05
5.27461e-05
4.63376e-05
4.38885e-05
4.68696e-05
5.68413e-05
7.38056e-05
9.24154e-05
0.000106519
0.00011306
0.000111184
0.000102526
9.16354e-05
8.35188e-05
7.6893e-05
7.34827e-05
7.58605e-05
8.17008e-05
8.7539e-05
8.94081e-05
8.38478e-05
7.08384e-05
5.54943e-05
4.41038e-05
4.15179e-05
5.12906e-05
6.46946e-05
3.79151e-05
9.22897e-06
6.94288e-07
4.7763e-07
7.61757e-06
2.47369e-05
5.27007e-05
6.26611e-05
6.07567e-05
5.44643e-05
4.77437e-05
4.31241e-05
4.30758e-05
4.89073e-05
6.19098e-05
8.11124e-05
9.98533e-05
0.000112315
0.000115816
0.000109748
9.78365e-05
8.73996e-05
7.58151e-05
6.85914e-05
6.96463e-05
7.44456e-05
7.94876e-05
8.13106e-05
7.73607e-05
6.79247e-05
5.6754e-05
4.91994e-05
4.95539e-05
5.88635e-05
6.62445e-05
3.61252e-05
8.9478e-06
6.32457e-07
4.68428e-07
7.64151e-06
2.48156e-05
5.20519e-05
6.23538e-05
6.18818e-05
5.73043e-05
5.11861e-05
4.51754e-05
4.13365e-05
4.26583e-05
5.04466e-05
6.51801e-05
8.60904e-05
0.000106047
0.000116867
0.000116646
0.000106734
9.44447e-05
7.72522e-05
6.55912e-05
6.39162e-05
6.60414e-05
6.90383e-05
7.14132e-05
7.06818e-05
6.58839e-05
5.94583e-05
5.57596e-05
5.82936e-05
6.73533e-05
6.80441e-05
3.37134e-05
8.84823e-06
5.76164e-07