/*--------------------------------*- C++ -*----------------------------------*\
| =========                 |                                                 |
| \\      /  F ield         | OpenFOAM: The Open Source CFD Toolbox           |
|  \\    /   O peration     | Version:  2.0.x                                 |
|   \\  /    A nd           | Web:      www.OpenFOAM.org                      |
|    \\/     M anipulation  |                                                 |
\*---------------------------------------------------------------------------*/
FoamFile
{
    version     2.0;
    format      ascii;
    class       volScalarField;
    location    "650";
    object      k;
}
// * * * * * * * * * * * * * * * * * * * * * * * * * * * * * * * * * * * * * //

dimensions      [0 2 -2 0 0 0 0];

internalField   nonuniform List<scalar> 
78750
(
0.000135801
0.000474645
0.000558123
0.000580178
0.000596164
0.000622304
0.000655032
0.000682372
0.000705334
0.000725982
0.000744179
0.00076001
0.000773616
0.00078496
0.000794646
0.000802599
0.000808861
0.000813354
0.000816494
0.000817635
0.000819689
0.000819999
0.000819463
0.000818197
0.000814498
0.000808756
0.000801333
0.000792519
0.000782216
0.000770881
0.000758048
0.000742327
0.000723653
0.000653177
0.00017563
0.000119777
0.00032402
0.000388651
0.000401871
0.000460388
0.000554116
0.000631018
0.000698078
0.000759081
0.000811975
0.000856827
0.000893939
0.000923841
0.000947146
0.000964457
0.000976271
0.000983137
0.000985147
0.000983966
0.000978213
0.000966583
0.000950943
0.000931942
0.000910467
0.000889143
0.000867661
0.000846565
0.000825362
0.000803008
0.000780496
0.000757937
0.000738242
0.000709805
0.000623443
0.000358111
2.74921e-05
0.000130433
0.000213797
0.000315662
0.000438701
0.000570928
0.000687715
0.00077804
0.000845806
0.000899166
0.00094065
0.000972149
0.000995206
0.00101099
0.00102046
0.00102446
0.0010238
0.00101813
0.00100802
0.000994059
0.000977284
0.000958261
0.000936456
0.000910742
0.000881862
0.000851925
0.000822235
0.000790261
0.000757773
0.000730967
0.000711187
0.000691449
0.000652915
0.000573142
0.000404487
2.40939e-05
0.000201836
0.000385593
0.000567551
0.000709559
0.000805714
0.000874717
0.000929752
0.000974206
0.00100787
0.00103408
0.00105465
0.00107053
0.00108217
0.00108965
0.00109288
0.001092
0.00108614
0.00107552
0.00106001
0.00103958
0.00101483
0.000986212
0.000953987
0.000917854
0.000877864
0.000835429
0.00078997
0.000743661
0.000702741
0.0006697
0.000643598
0.000604497
0.000536299
0.000406971
2.54123e-05
0.000244412
0.000441916
0.000599283
0.000721026
0.000813538
0.000885454
0.000943009
0.000990269
0.00102981
0.00106281
0.00108977
0.00111086
0.00112611
0.0011355
0.00113904
0.00113747
0.00112952
0.00111593
0.001097
0.00107316
0.00104491
0.00101275
0.00097665
0.000936612
0.000892802
0.000846102
0.000795843
0.000743142
0.000694052
0.000650613
0.00061446
0.000571517
0.000509332
0.000399235
5.22744e-05
0.000302736
0.000523179
0.000695177
0.000818968
0.00090789
0.000975215
0.00102875
0.00107252
0.00110842
0.00113742
0.00116017
0.0011771
0.00118843
0.00119426
0.00119455
0.00119056
0.00117995
0.0011638
0.00114228
0.00111564
0.00108441
0.0010491
0.00100943
0.000965074
0.000916412
0.000864826
0.000809544
0.000750493
0.000693461
0.000640454
0.000594094
0.000548477
0.000491218
0.000396343
6.51125e-05
0.000332242
0.000551318
0.000714014
0.00083233
0.000921455
0.000990524
0.00104687
0.00109392
0.00113338
0.00116624
0.00119301
0.00121389
0.00122896
0.00123784
0.0012402
0.001237
0.00122662
0.0012103
0.00118804
0.00116004
0.00112687
0.00108925
0.00104721
0.00100052
0.000949387
0.000895514
0.000839623
0.00077816
0.000711648
0.000646115
0.000586893
0.000533207
0.000477074
0.000392189
8.82971e-05
0.000370847
0.000608716
0.000785253
0.000908672
0.00099608
0.00106286
0.00111705
0.00116215
0.00119992
0.0012312
0.00125647
0.0012757
0.00128878
0.00129568
0.00129634
0.0012922
0.00128077
0.00126268
0.00123767
0.00120591
0.00116839
0.00112651
0.0010803
0.00102998
0.000976008
0.00091957
0.000860162
0.000794245
0.000724139
0.000654886
0.000587674
0.000526798
0.000470325
0.000395392
0.000103092
0.000397617
0.000638686
0.000812284
0.000931834
0.00101743
0.00108484
0.00114086
0.00118851
0.00122934
0.00126373
0.00129165
0.00131315
0.00132808
0.00133644
0.00133839
0.00133502
0.0013242
0.00130646
0.00128161
0.00124977
0.00121135
0.00116625
0.00111506
0.00106021
0.00100195
0.000940658
0.000873819
0.000800795
0.000728355
0.00065724
0.000587285
0.000523821
0.000468266
0.000399573
0.000122932
0.000436691
0.000693745
0.000873754
0.00099184
0.00107584
0.00114197
0.0011971
0.00124425
0.00128451
0.0013182
0.0013453
0.00136571
0.00137956
0.00138695
0.00138777
0.00138324
0.00137078
0.00135133
0.00132502
0.00129235
0.00125351
0.00120812
0.00115618
0.0010978
0.00103329
0.000964656
0.000890082
0.000812542
0.000737231
0.000662021
0.000587837
0.000522855
0.000467331
0.000399607
0.000137995
0.00046426
0.000725173
0.000900429
0.00101461
0.00109707
0.00116327
0.00121984
0.00126882
0.00131103
0.00134675
0.00137591
0.00139835
0.00141388
0.00142225
0.00142329
0.00141839
0.00140542
0.00138541
0.00135868
0.00132607
0.00128736
0.00124221
0.00119052
0.00113214
0.00106643
0.000992298
0.00090982
0.000825985
0.00074433
0.000663067
0.000587138
0.000522259
0.000466483
0.000396382
0.000157328
0.00050565
0.000778025
0.00095251
0.00106312
0.00114231
0.00120623
0.00126113
0.00130914
0.00135106
0.00138679
0.00141629
0.00143924
0.00145513
0.00146358
0.00146457
0.00145948
0.0014466
0.00142693
0.00140083
0.00136868
0.00133057
0.00128643
0.00123622
0.0011796
0.00111564
0.00104222
0.000956292
0.000861494
0.000767793
0.000674202
0.000589236
0.000522505
0.000464964
0.000390344
0.000171339
0.00053435
0.000808611
0.000976584
0.00108189
0.00115808
0.00122104
0.0012758
0.0013246
0.00136831
0.00140696
0.00143994
0.0014661
0.00148455
0.0014949
0.00149725
0.00149277
0.00148061
0.00146173
0.00143632
0.00140437
0.0013663
0.00132242
0.00127279
0.00121689
0.00115333
0.00108005
0.000996961
0.000903679
0.000796013
0.000687291
0.000593577
0.000523801
0.000463763
0.000385224
0.000189383
0.000576556
0.000857302
0.00102096
0.00111968
0.00119018
0.00124842
0.00130013
0.0013477
0.00139215
0.00143312
0.00146903
0.00149803
0.00151891
0.0015313
0.00153545
0.0015323
0.00152177
0.00150461
0.00148033
0.00144895
0.00141121
0.0013677
0.00131858
0.00126335
0.00120093
0.00112973
0.00104898
0.000954998
0.000839247
0.00070954
0.000602057
0.000527165
0.000463949
0.000381216
0.000203562
0.000607958
0.000888619
0.00104374
0.00113488
0.00120002
0.00125412
0.00130387
0.00135137
0.00139911
0.00144516
0.00148656
0.00152042
0.0015453
0.00156096
0.00156782
0.00156672
0.00155833
0.00154275
0.00151962
0.00148899
0.00145177
0.00140888
0.00136063
0.00130666
0.00124572
0.00117705
0.00109828
0.00100172
0.000880073
0.000740041
0.000615528
0.000533243
0.000465512
0.000379693
0.00022619
0.000654856
0.00093809
0.00108453
0.00116606
0.00122251
0.00126859
0.00130992
0.00135653
0.00140715
0.0014594
0.00150668
0.00154527
0.00157418
0.0015935
0.00160354
0.00160523
0.00159957
0.00158571
0.00156388
0.00153424
0.00149782
0.00145561
0.00140796
0.00135466
0.00129479
0.0012273
0.00114836
0.00104907
0.00092228
0.000773531
0.000633943
0.00054278
0.000470264
0.000380471
0.000252229
0.000693665
0.000971259
0.00110789
0.00118151
0.001231
0.00127128
0.00131041
0.00135493
0.00140647
0.00146033
0.00151126
0.00155641
0.0015919
0.00161676
0.00163077
0.00163628
0.00163324
0.00162149
0.00160133
0.00157315
0.00153799
0.00149684
0.00145013
0.00139789
0.00133997
0.0012738
0.00119314
0.00109074
0.000960924
0.00080686
0.000657486
0.00055611
0.000477362
0.000381466
0.000291404
0.000748119
0.00101782
0.00114341
0.00120907
0.00124948
0.00127801
0.00130507
0.00134558
0.00139888
0.00145672
0.00151076
0.00155706
0.00159557
0.00162598
0.00164922
0.00166208
0.00166421
0.00165563
0.00163817
0.00161214
0.00157838
0.00153813
0.00149206
0.00144024
0.0013822
0.00131477
0.00123158
0.00112592
0.000992892
0.000835599
0.000681221
0.000573184
0.000487054
0.000381459
0.000330167
0.000787703
0.00104406
0.00116299
0.00122616
0.00126295
0.00128101
0.00129425
0.00131687
0.00136346
0.00142174
0.00148192
0.00153755
0.00158491
0.00162247
0.00164975
0.00166758
0.00167587
0.00167572
0.00166492
0.00164389
0.00161339
0.00157574
0.00153179
0.00148144
0.00142295
0.00135259
0.00126541
0.00115578
0.00101912
0.000859177
0.000702421
0.000590673
0.0004976
0.000379945
0.000361098
0.000807677
0.00106549
0.00118557
0.001251
0.00128892
0.00130118
0.00129869
0.00130156
0.00131808
0.00136031
0.00141516
0.00147527
0.00153278
0.00158357
0.00162464
0.00165434
0.00167224
0.00167825
0.00167408
0.00166024
0.00163744
0.00160545
0.00156513
0.0015167
0.00145835
0.00138655
0.00129663
0.00118342
0.00104331
0.000881326
0.000722687
0.000608347
0.000509257
0.000379179
0.000365906
0.000808852
0.00106805
0.00119447
0.00126722
0.00131308
0.0013312
0.00132783
0.00131123
0.0013025
0.00130779
0.00133393
0.00138412
0.00144189
0.001501
0.00155442
0.00159867
0.00163175
0.00165274
0.00166111
0.00165777
0.00164328
0.00161891
0.0015853
0.00154159
0.00148598
0.0014152
0.00132478
0.00120983
0.00106745
0.000903839
0.000743586
0.000626912
0.000522365
0.000380184
0.000365077
0.000806314
0.00106915
0.00120453
0.00128571
0.00133956
0.00136952
0.0013741
0.00135879
0.00133022
0.00130524
0.00129965
0.00130808
0.00133872
0.001391
0.00144721
0.00150152
0.00154847
0.0015851
0.00160988
0.00162181
0.00162153
0.00160945
0.00158583
0.00155007
0.00150074
0.00143479
0.0013474
0.0012336
0.00109097
0.000926599
0.000765072
0.000646135
0.000536642
0.000383752
0.000350306
0.000785839
0.0010615
0.00120528
0.0012954
0.00135833
0.00140056
0.00141912
0.00141977
0.00140076
0.00136569
0.00132501
0.00129598
0.00128864
0.00129641
0.00132581
0.00137504
0.0014264
0.00147472
0.00151526
0.00154479
0.00156187
0.00156601
0.00155693
0.00153396
0.00149498
0.00143658
0.00135652
0.00124931
0.00111062
0.000948426
0.000787605
0.000666951
0.000552628
0.000389264
0.000319256
0.000752677
0.00104099
0.00119984
0.0012963
0.00136723
0.00141838
0.0014528
0.00146696
0.00146703
0.00145008
0.0014163
0.00136904
0.00131846
0.00127962
0.00126169
0.00126383
0.00128707
0.00132702
0.00137657
0.00142095
0.0014565
0.0014804
0.0014908
0.0014863
0.00146471
0.00142263
0.00135348
0.00125293
0.00112251
0.000966094
0.000808759
0.00068755
0.000568933
0.000396146
0.00028074
0.000719043
0.00101691
0.00118731
0.00129388
0.00136952
0.00142675
0.00146941
0.00149897
0.00151309
0.0015146
0.00150182
0.00147363
0.00142966
0.00137286
0.0013122
0.00125999
0.00122754
0.00121928
0.00123091
0.00126343
0.00130745
0.00134858
0.00138045
0.00139929
0.00140079
0.00138018
0.00133062
0.00124755
0.00112627
0.000979057
0.000828335
0.000708408
0.000586726
0.00040671
0.000244513
0.000690876
0.000999463
0.00118149
0.00129194
0.00137113
0.00143259
0.00148083
0.00151776
0.00154403
0.00155841
0.00156057
0.00155015
0.00152594
0.00148721
0.00143413
0.00136971
0.00129973
0.00123372
0.00118492
0.00115978
0.00116265
0.0011938
0.0012346
0.00127441
0.00130295
0.00130993
0.00128817
0.00122648
0.00112465
0.000989192
0.000846221
0.000728783
0.000605831
0.000423331
0.000222816
0.000683804
0.00099865
0.0011848
0.00129999
0.00138134
0.00144404
0.00149408
0.00153461
0.00156692
0.00159042
0.00160352
0.00160478
0.00159285
0.00156707
0.00152754
0.00147523
0.00141225
0.00134058
0.00126413
0.00119103
0.00113345
0.00110345
0.00110411
0.00113311
0.00117565
0.00121027
0.00121889
0.00119054
0.00111194
0.000991891
0.000860925
0.000748765
0.000627324
0.000447526
0.000221452
0.000685241
0.00101295
0.00120799
0.00132558
0.00140615
0.00146714
0.00151592
0.00155658
0.00159134
0.00162024
0.00164121
0.00165153
0.00164904
0.00163218
0.0016005
0.00155395
0.00149413
0.00142495
0.00134819
0.00126624
0.00118477
0.00111845
0.0010791
0.00106724
0.00107799
0.00110737
0.00113505
0.00113379
0.00108641
0.000989981
0.000872112
0.000766824
0.000649375
0.000477707
0.000239195
0.00072264
0.00106146
0.00125358
0.00136555
0.001441
0.00149781
0.00154337
0.00158261
0.00161895
0.00165306
0.00168196
0.00170164
0.00170762
0.00169821
0.00167127
0.00162884
0.00157175
0.00150118
0.00141926
0.00132862
0.00123355
0.00114781
0.00108512
0.00104766
0.0010362
0.00104393
0.00106236
0.00107309
0.00105151
0.000978716
0.000877835
0.000782674
0.000671453
0.000506463
0.000278039
0.000772766
0.00111125
0.00129486
0.00140031
0.00147124
0.00152415
0.00156627
0.00160368
0.00164201
0.00168305
0.00172336
0.00175725
0.00177685
0.00177494
0.00175426
0.00171376
0.00165551
0.00158257
0.00149592
0.00139667
0.00128843
0.00118486
0.0011033
0.00104718
0.00101738
0.00101088
0.00101725
0.00102504
0.00101426
0.000960998
0.000877525
0.00079354
0.000689285
0.000526274
0.000337901
0.000837893
0.00116331
0.00133306
0.00143137
0.00149804
0.00154681
0.00158402
0.0016177
0.00165582
0.00170149
0.00175203
0.00179961
0.00183655
0.00185834
0.00185463
0.0018216
0.0017614
0.0016819
0.00158369
0.00147129
0.00134879
0.0012251
0.00112095
0.00104926
0.00100735
0.00099024
0.000989381
0.00099287
0.000984366
0.000943868
0.000875976
0.000801631
0.000702874
0.000534491
0.000400153
0.00088
0.00118735
0.00135319
0.00144941
0.00151547
0.0015619
0.00159411
0.00162071
0.00165504
0.00169933
0.00174961
0.00179741
0.00183676
0.00186314
0.00187399
0.00186998
0.00184399
0.00178728
0.00170259
0.00158794
0.00144684
0.00129363
0.00115804
0.00106088
0.00100267
0.000975524
0.000968674
0.000969613
0.000962139
0.000929104
0.000872427
0.000806343
0.000711178
0.000532991
0.000419383
0.000883572
0.00119035
0.00135756
0.00145834
0.00152731
0.00157483
0.00160408
0.00162113
0.00163938
0.00166339
0.00170457
0.00175451
0.00180437
0.00184475
0.00186828
0.00187085
0.00185494
0.00182095
0.00176074
0.00166984
0.00154935
0.00139915
0.00123585
0.00110176
0.00101258
0.000969186
0.000954457
0.000952592
0.000945515
0.000917884
0.000869296
0.000808439
0.000713165
0.000522034
0.000418589
0.000877594
0.00118739
0.00135784
0.00146371
0.00153923
0.0015917
0.00162269
0.00163509
0.00163693
0.00164034
0.00164639
0.0016662
0.00170831
0.00175551
0.00179987
0.00183019
0.0018392
0.00182245
0.00178139
0.00171677
0.00161949
0.00149154
0.00133581
0.0011746
0.00105025
0.000976771
0.000947513
0.000940942
0.000933496
0.00090931
0.000866413
0.000808924
0.000711934
0.000512048
0.000392494
0.000845475
0.00116632
0.00135013
0.00146398
0.00154737
0.00160841
0.00164929
0.00166952
0.00167202
0.00166092
0.00164638
0.00163986
0.00164403
0.00166648
0.00170762
0.00174822
0.00177853
0.00178977
0.00177572
0.00173118
0.00165933
0.00155436
0.00141605
0.00125592
0.00110601
0.00100371
0.000951752
0.000934702
0.000926456
0.000904753
0.000865666
0.000809862
0.000711634
0.000510415
0.000353775
0.000810476
0.00113969
0.00133511
0.00145853
0.00154821
0.00161598
0.0016652
0.00169694
0.00171075
0.00170948
0.00169327
0.00166693
0.00164223
0.00163175
0.00164035
0.00166687
0.00170129
0.00172857
0.00173722
0.00172119
0.00167353
0.0015921
0.00147447
0.00132727
0.0011723
0.00104402
0.000968376
0.00093712
0.000922461
0.000900417
0.000864241
0.000810888
0.000712307
0.000513548
0.000319399
0.000782663
0.00111904
0.00132538
0.00145538
0.00154907
0.00162133
0.00167532
0.00171194
0.00173237
0.00173875
0.00173395
0.00171891
0.0016945
0.00166531
0.00164366
0.00164632
0.0016708
0.00169804
0.00171333
0.00170871
0.00167796
0.00161608
0.00152106
0.00139642
0.0012466
0.00109715
0.000996407
0.000947703
0.000924946
0.000901596
0.000865714
0.000813048
0.000715519
0.000530037
0.000310568
0.000776153
0.00111632
0.00132474
0.00145805
0.00155564
0.00163174
0.00168975
0.00173011
0.00175275
0.00175995
0.00175624
0.00174597
0.00173349
0.00172143
0.00170811
0.00169478
0.0016974
0.0017121
0.00172373
0.00172151
0.00170158
0.00165309
0.00157635
0.00147006
0.00132863
0.00116738
0.00103594
0.000966382
0.000933849
0.000906352
0.000870545
0.00081836
0.000723457
0.000556052
0.000313923
0.000776023
0.00112006
0.00133319
0.0014699
0.00156989
0.00164822
0.00170829
0.00175029
0.00177358
0.00177944
0.00177348
0.00175908
0.00175485
0.00176113
0.00178378
0.00180978
0.00182518
0.00182716
0.00182071
0.00180327
0.0017712
0.00172063
0.00164899
0.00155108
0.00141721
0.00125317
0.00109745
0.000996
0.000946037
0.000913537
0.000876831
0.000825478
0.000734782
0.000583594
0.000350069
0.000809215
0.00114677
0.0013547
0.00149045
0.0015915
0.00167108
0.00173154
0.00177233
0.00179208
0.00179131
0.0017765
0.00175947
0.00176497
0.00181065
0.00188617
0.00195449
0.00199159
0.00199019
0.00197066
0.00193465
0.0018865
0.00182591
0.00174798
0.00164289
0.0015032
0.00133436
0.00116488
0.00103978
0.000970276
0.000927989
0.000887143
0.000834018
0.00074426
0.000592213
0.000417326
0.000860275
0.00117599
0.00137454
0.0015087
0.00161114
0.00169232
0.00175314
0.00179271
0.00180828
0.00180104
0.00177344
0.00174309
0.00175311
0.0018182
0.00191664
0.00200776
0.00206907
0.00209461
0.00208402
0.00204942
0.00199848
0.00193236
0.00184611
0.00173191
0.00158482
0.00140974
0.00123152
0.0010906
0.00100351
0.000948566
0.000901398
0.000844269
0.000748398
0.000586159
0.000491804
0.000881147
0.00118057
0.0013761
0.00151038
0.00161416
0.00169816
0.00176383
0.00180581
0.0018205
0.00180777
0.00177074
0.00172686
0.00170723
0.00175954
0.00187844
0.00198594
0.00206222
0.00210115
0.00210725
0.00208922
0.00205127
0.00199277
0.00190948
0.00179649
0.00165009
0.00147497
0.00129299
0.00114033
0.00103743
0.000970473
0.000915268
0.000851549
0.000747026
0.000551136
0.000505268
0.000880676
0.00117429
0.00136789
0.00150377
0.00161095
0.00169805
0.00176666
0.00181735
0.00184196
0.00183546
0.0018021
0.00174858
0.00169644
0.00168005
0.00169523
0.00177429
0.00188161
0.00196701
0.00201617
0.00203051
0.00201806
0.00197881
0.00190965
0.00180962
0.00167805
0.00151776
0.00134508
0.00119193
0.00107935
0.000999958
0.000935041
0.000860819
0.000737267
0.00049731
0.000474492
0.000828564
0.00112419
0.00132216
0.00146302
0.00157652
0.00167288
0.00175327
0.00181632
0.00186113
0.00188294
0.00187867
0.00184155
0.00177728
0.00170093
0.00164075
0.001613
0.00160738
0.00165646
0.00173383
0.00180996
0.00185278
0.00186316
0.0018421
0.0017794
0.00167205
0.00152768
0.00136934
0.0012217
0.00110519
0.00101834
0.000946251
0.000862135
0.000718537
0.000452425
0.000382692
0.000762564
0.00106972
0.001275
0.00141899
0.00153411
0.00163383
0.00172139
0.00179806
0.00186163
0.00191093
0.00194301
0.00195084
0.00193376
0.00188409
0.00180239
0.00170195
0.00160617
0.00153388
0.00149314
0.00148181
0.00152765
0.00158729
0.00163511
0.00165148
0.0016165
0.00152321
0.00139164
0.00125569
0.00113531
0.00104023
0.000960777
0.000870319
0.000720203
0.000448064
0.000324484
0.000715656
0.00102638
0.00124132
0.0013928
0.00151374
0.00161887
0.00171208
0.00179178
0.00185914
0.00191409
0.00195562
0.00198341
0.00199419
0.00198888
0.00195994
0.00190099
0.00180974
0.00169368
0.00157155
0.00146521
0.00139425
0.00137006
0.00139071
0.00144128
0.00147854
0.00146447
0.00138594
0.00127081
0.00115836
0.00106022
0.000976412
0.000881048
0.00072316
0.000464718
0.000297655
0.000693262
0.00100689
0.00123122
0.00138851
0.00151165
0.00161747
0.00171261
0.00179964
0.00187767
0.00194403
0.0019954
0.00202943
0.00204488
0.00204231
0.00202143
0.00198161
0.00192027
0.00183352
0.00172115
0.00159049
0.00145959
0.00136117
0.00131738
0.00131958
0.00134453
0.00135804
0.00133636
0.00126536
0.00116904
0.00107435
0.000990103
0.00089548
0.000742152
0.000510858
0.000289475
0.000679849
0.000998088
0.00122632
0.0013875
0.00151461
0.00162537
0.00172642
0.00181885
0.00190319
0.00197853
0.00204281
0.00209277
0.00212596
0.00213954
0.0021314
0.00209982
0.00204432
0.00196458
0.00185993
0.00173105
0.00158235
0.0014383
0.00133389
0.00128365
0.00127745
0.00128629
0.00128348
0.0012432
0.00116911
0.00108489
0.00100342
0.00091116
0.000765482
0.00055212
0.000290414
0.000680474
0.00100119
0.0012351
0.00140061
0.00153109
0.00164563
0.00175097
0.00184801
0.00193824
0.00201943
0.00208999
0.00214817
0.0021917
0.00221819
0.00222435
0.00220826
0.00216518
0.00209519
0.00199886
0.00187566
0.00172447
0.0015539
0.00139804
0.00129452
0.00124974
0.00124258
0.00124319
0.00122437
0.00116853
0.00109507
0.00101827
0.000929288
0.000790547
0.000592688
0.0003014
0.000697044
0.00102358
0.00125325
0.00141474
0.00154517
0.00166413
0.00177933
0.00188937
0.00198948
0.00207936
0.00215934
0.00222874
0.00228541
0.00232672
0.00234793
0.00234498
0.00231372
0.00225115
0.0021571
0.00203348
0.00187991
0.00169675
0.00150691
0.00135504
0.00125856
0.00122084
0.00121368
0.00120304
0.00116479
0.00110214
0.00103076
0.000946264
0.000815244
0.000626702
0.00033509
0.00072905
0.0010481
0.00127224
0.00143175
0.0015642
0.0016878
0.00180918
0.00192458
0.00203158
0.00213236
0.00222693
0.00231347
0.00238917
0.00244976
0.00249055
0.00250531
0.00249108
0.00243981
0.00234946
0.00221921
0.00204909
0.00184962
0.00163714
0.00144913
0.00130739
0.00122929
0.00120381
0.00119154
0.00116251
0.00110952
0.00104423
0.000964635
0.000840338
0.00065697
0.000373225
0.000759998
0.0010704
0.00128292
0.00143555
0.00156747
0.00169462
0.00181993
0.00194094
0.00205504
0.00215986
0.00225875
0.0023532
0.00244093
0.00251404
0.00257003
0.00260125
0.00260146
0.00257178
0.00250314
0.00239626
0.00224444
0.00203941
0.00179436
0.00155637
0.00136431
0.00124698
0.00120228
0.00118512
0.00116052
0.00111457
0.00105503
0.000979817
0.000858939
0.000663639
0.000418496
0.00078446
0.00107645
0.00128349
0.00143548
0.00156706
0.00169532
0.00182066
0.00194193
0.00205682
0.00216473
0.00226814
0.00236844
0.00246573
0.00255918
0.00263093
0.00267205
0.0026748
0.00264369
0.00257505
0.00247192
0.00233376
0.00215613
0.00193612
0.00168553
0.00144667
0.00128757
0.00121058
0.00118169
0.00115705
0.0011175
0.00106398
0.000992935
0.000871526
0.000659061
0.000433623
0.000786014
0.00107634
0.00127499
0.00141918
0.00154542
0.00167032
0.00179488
0.00191614
0.00203135
0.00214131
0.0022498
0.0023588
0.00246556
0.00256273
0.00264298
0.0026982
0.00272548
0.00271174
0.00265332
0.0025565
0.00242194
0.00224763
0.00202823
0.00176454
0.00149461
0.00130805
0.0012207
0.00118463
0.00115926
0.0011222
0.00107197
0.00100144
0.000870375
0.000621359
0.000430623
0.000779256
0.00106012
0.00125267
0.0013945
0.00151901
0.00163991
0.00175851
0.00187242
0.00197871
0.00207677
0.00217286
0.00227389
0.00238371
0.00249817
0.00260421
0.00268612
0.00273287
0.00274416
0.0027205
0.00265337
0.00254009
0.00238262
0.00217353
0.00190379
0.00159358
0.0013344
0.00122541
0.00118636
0.0011609
0.00112501
0.00107692
0.00100662
0.000870373
0.000600484
0.000398027
0.000749461
0.00103153
0.00122501
0.00136637
0.0014891
0.00160738
0.00172422
0.00183646
0.00194023
0.00203196
0.00211512
0.00219625
0.00228366
0.00238352
0.00249293
0.00259802
0.00268163
0.00273101
0.00274072
0.00271378
0.0026495
0.00253811
0.00237231
0.0021405
0.00183054
0.00149681
0.00126959
0.00119423
0.00116805
0.00113533
0.00108822
0.00101737
0.000877487
0.000610389
0.000392172
0.000741952
0.00101777
0.00120656
0.00134457
0.0014646
0.00158058
0.00169736
0.0018112
0.0019173
0.0020108
0.00209271
0.00216792
0.00224336
0.00232665
0.0024207
0.00251971
0.0026098
0.00267556
0.0027099
0.00271138
0.00268168
0.00261368
0.00250293
0.00233566
0.00208564
0.00175074
0.0014298
0.00124704
0.00118075
0.00114204
0.00109836
0.00103002
0.000886151
0.000632113
0.00039499
0.000739064
0.0010119
0.00119742
0.00133391
0.00145397
0.00157037
0.00168785
0.00180356
0.001911
0.00200391
0.00208113
0.00214693
0.00221038
0.0022837
0.0023701
0.0024634
0.00255164
0.00261816
0.00265552
0.00266351
0.00264448
0.00259486
0.00250712
0.00236513
0.0021517
0.00186239
0.00154636
0.00132321
0.00121913
0.00116443
0.00111212
0.00103414
0.000885418
0.000627243
0.000388509
0.000732722
0.000998032
0.00117637
0.00130783
0.00142563
0.00154301
0.00166443
0.00178632
0.00190032
0.0019994
0.00207706
0.00213803
0.00218792
0.00223102
0.00228216
0.00235365
0.00243907
0.0025098
0.0025538
0.00256818
0.00255483
0.00251289
0.00243527
0.00230692
0.00211117
0.00184911
0.00157174
0.00135939
0.00124652
0.00118099
0.00112083
0.00103294
0.000859204
0.000555867
0.00037009
0.000725695
0.00099156
0.00116276
0.00128863
0.0014024
0.00151827
0.00164237
0.00177276
0.00189922
0.00200691
0.00209095
0.00215083
0.00219314
0.0022284
0.00226396
0.00230645
0.00235216
0.00240447
0.00244434
0.00245917
0.0024465
0.00240324
0.00232017
0.0021866
0.00200068
0.00177806
0.00155694
0.00137635
0.00126699
0.00119476
0.00112501
0.00102201
0.000825606
0.00050834
0.0003707
0.000727035
0.000990835
0.00115807
0.00127882
0.00138892
0.00150437
0.00163208
0.00177025
0.00190647
0.00203289
0.00213362
0.00220524
0.00225102
0.00227702
0.00229256
0.00230939
0.00233549
0.00236488
0.00238858
0.00239742
0.00238315
0.00233904
0.00225537
0.00212245
0.0019447
0.00174957
0.00155702
0.00139045
0.00128139
0.00120417
0.00112938
0.00102139
0.000818638
0.000501866
0.000373546
0.000738584
0.000994489
0.00114998
0.00126165
0.00136578
0.00147884
0.00160917
0.0017555
0.00190393
0.00203968
0.0021515
0.00223467
0.00229174
0.00232697
0.002345
0.00235255
0.00235665
0.00236304
0.00237049
0.00237026
0.00235298
0.0023096
0.00223099
0.00210724
0.00193874
0.00174697
0.00156195
0.00140925
0.00129738
0.00121282
0.00113298
0.00102285
0.000820818
0.000513049
0.000375719
0.00074537
0.000997484
0.00114496
0.00124942
0.00134674
0.00145473
0.00158468
0.00173664
0.00189503
0.00204293
0.00217212
0.00227073
0.00233923
0.00238431
0.00240868
0.0024167
0.00241249
0.00240229
0.00239158
0.00237893
0.00235528
0.00230997
0.00223284
0.00211365
0.00194857
0.00176075
0.00158385
0.00143594
0.00132008
0.00122767
0.00114225
0.00103155
0.000835034
0.000533806
0.00039224
0.000763173
0.00100573
0.00114239
0.0012381
0.0013276
0.00142892
0.00155591
0.00171144
0.00187907
0.00203858
0.00217578
0.00228622
0.00237422
0.002436
0.00247313
0.00249055
0.00248952
0.00247406
0.00245151
0.0024256
0.00239129
0.00233978
0.00226251
0.00214825
0.00198846
0.00179381
0.00160029
0.00144345
0.00132552
0.00123243
0.00114806
0.00103942
0.000847173
0.000551637
0.000406283
0.000770839
0.00100611
0.00113733
0.00122665
0.00130813
0.00139911
0.00151501
0.00166524
0.0018369
0.00200761
0.00216008
0.00228441
0.0023802
0.00245451
0.00251245
0.00254875
0.00256198
0.00255721
0.00253847
0.00250999
0.0024704
0.0024143
0.00233539
0.00222599
0.00207649
0.00188409
0.00167234
0.00148536
0.00134713
0.00124639
0.00115933
0.00105423
0.000870008
0.000592389
0.000416095
0.000771148
0.00100425
0.00113163
0.00121636
0.00129009
0.00136749
0.00146433
0.00159801
0.00176546
0.00194396
0.00211064
0.00225255
0.00236501
0.00245261
0.00251958
0.00256945
0.00260425
0.00261999
0.00261743
0.0025991
0.00256372
0.00250871
0.00243132
0.00232746
0.00219023
0.00201028
0.00179427
0.00157867
0.00140517
0.00127761
0.00117806
0.00107339
0.000903844
0.000646149
0.000419379
0.000767566
0.000997293
0.00112614
0.00121154
0.00128134
0.00134734
0.00142476
0.00153188
0.00168072
0.00185773
0.00203353
0.00218871
0.00231447
0.00241582
0.00249667
0.00256017
0.00260857
0.00264314
0.00266374
0.00266734
0.00265068
0.00260914
0.00254202
0.00244837
0.00232295
0.00215702
0.00194549
0.00170716
0.00148826
0.00132179
0.00120426
0.00109431
0.000931695
0.00066655
0.000416747
0.000753606
0.000984118
0.00111692
0.00120565
0.00127575
0.00133518
0.0013926
0.00147129
0.00159105
0.0017523
0.00193039
0.00209472
0.00222982
0.00233846
0.00242452
0.002493
0.00254889
0.00259551
0.00263374
0.00265914
0.0026604
0.00263636
0.00258423
0.0025043
0.00239296
0.00224413
0.00204819
0.0018128
0.00157581
0.00138612
0.00124904
0.00112122
0.0009433
0.000663404
0.000402597
0.000735375
0.000969889
0.0011084
0.00120174
0.00127527
0.00133485
0.00138503
0.00143462
0.00151995
0.00165524
0.00182712
0.00200191
0.00215092
0.00226959
0.00236057
0.00242927
0.00248215
0.00252569
0.00256587
0.00260366
0.00262616
0.00262007
0.00257943
0.00250333
0.00239335
0.00224502
0.00205697
0.00183752
0.00161458
0.00142931
0.0012854
0.0011421
0.000939253
0.000604252
0.000394817
0.000720531
0.00095408
0.001096
0.00119417
0.00127257
0.00133576
0.00138491
0.00142534
0.00146666
0.00155266
0.00170187
0.00188016
0.00204762
0.00218334
0.00228562
0.00235945
0.00241138
0.00244896
0.00248162
0.00251626
0.00254249
0.00254456
0.00251963
0.00246475
0.00236969
0.00223191
0.00205127
0.00184036
0.00163104
0.00145415
0.00130734
0.00114862
0.000917204
0.000550447
0.000372289
0.000694102
0.000931988
0.00108047
0.00118476
0.00126897
0.00133779
0.00139095
0.00142968
0.00146082
0.00149677
0.00157033
0.00172244
0.00190026
0.00206102
0.00218585
0.00227473
0.00233351
0.00236921
0.00239143
0.00241164
0.00243278
0.00244444
0.00243177
0.00238769
0.00231006
0.00219222
0.00203388
0.0018455
0.00165662
0.00148704
0.00133676
0.00116825
0.000918086
0.000542625
0.00034617
0.000668003
0.000908143
0.00106169
0.00117167
0.00126227
0.00133841
0.00139966
0.0014445
0.00147376
0.00149476
0.00152459
0.00158676
0.00173807
0.00191464
0.0020708
0.00218845
0.00226748
0.00231415
0.00233452
0.00233786
0.00233275
0.00232732
0.0023195
0.00229368
0.00223328
0.00213776
0.00200505
0.00184368
0.00167377
0.00151411
0.0013646
0.00119122
0.000929423
0.000548876
0.00031933
0.000639244
0.000882942
0.0010429
0.00115876
0.00125523
0.0013383
0.00140798
0.00146196
0.00149856
0.00151771
0.0015253
0.00154329
0.00159326
0.0017344
0.00190684
0.00205909
0.00217315
0.00224923
0.00229234
0.00230546
0.00229274
0.00226345
0.00223154
0.00220183
0.00215973
0.0020869
0.00198053
0.00184302
0.00169104
0.00154152
0.00139521
0.0012224
0.000960293
0.00059395
0.000294588
0.000612071
0.000857944
0.00102367
0.00114507
0.00124721
0.00133744
0.00141555
0.00147985
0.00152771
0.00155702
0.00156577
0.00156236
0.00156722
0.00160821
0.00172874
0.00189594
0.00204452
0.00215485
0.00222751
0.00226596
0.00227101
0.0022459
0.00220003
0.00215164
0.00210486
0.00204585
0.00195897
0.00184279
0.00171052
0.00157288
0.0014324
0.00126281
0.00100367
0.000646698
0.000274237
0.000588074
0.000836623
0.00100844
0.00113494
0.00124189
0.00133806
0.00142427
0.00149884
0.00155867
0.00160083
0.00162165
0.00162281
0.00161013
0.00160506
0.00164224
0.00174755
0.00190124
0.00203636
0.00213594
0.00219984
0.00222879
0.00222203
0.00218215
0.00212539