/*--------------------------------*- C++ -*----------------------------------*\
| =========                 |                                                 |
| \\      /  F ield         | OpenFOAM: The Open Source CFD Toolbox           |
|  \\    /   O peration     | Version:  2.0.x                                 |
|   \\  /    A nd           | Web:      www.OpenFOAM.org                      |
|    \\/     M anipulation  |                                                 |
\*---------------------------------------------------------------------------*/
FoamFile
{
    version     2.0;
    format      ascii;
    class       volScalarField;
    location    "650";
    object      omega;
}
// * * * * * * * * * * * * * * * * * * * * * * * * * * * * * * * * * * * * * //

dimensions      [0 0 -1 0 0 0 0];

internalField   nonuniform List<scalar> 
78750
(
1021.69
6.89781
7.28937
7.3896
7.46281
7.57775
7.7189
7.83525
7.93201
8.01803
8.09309
8.15778
8.213
8.25878
8.29768
8.32948
8.35445
8.37238
8.38482
8.38964
8.39933
8.39945
8.39774
8.39237
8.37758
8.35498
8.32565
8.29065
8.24949
8.20396
8.15211
8.08817
8.01221
7.72518
1091.34
1021.56
6.12997
6.47219
6.54343
6.84311
7.27927
7.61674
7.90131
8.15339
8.36573
8.54161
8.6845
8.79803
8.88559
8.95017
8.99406
9.01961
9.0272
9.02324
9.00208
8.95934
8.90157
8.83081
8.75035
8.66975
8.58783
8.50652
8.42418
8.33602
8.24609
8.15483
8.07436
7.95842
7.60553
1092.75
1020.8
4.9715
5.50099
6.08462
6.7878
7.38499
7.86145
8.22144
8.4966
8.70404
8.86112
8.97839
9.06328
9.12097
9.15552
9.17008
9.16799
9.14764
9.11119
9.06059
8.99945
8.92952
8.84848
8.75164
8.64211
8.52748
8.41214
8.2854
8.15511
8.0461
7.96492
7.88374
7.72791
7.39875
1093.11
1020.77
5.43058
6.4579
7.32916
7.89984
8.30055
8.5975
8.82045
8.98313
9.10676
9.20231
9.27661
9.33356
9.37504
9.40163
9.4132
9.41033
9.38986
9.35251
9.29758
9.22473
9.13576
9.03184
8.9133
8.77817
8.62622
8.46256
8.28352
8.09675
7.9286
7.79124
7.68393
7.5258
7.2425
1093.13
1020.79
5.68348
6.73913
7.47509
8.00244
8.37696
8.65405
8.86963
9.0438
9.18715
9.30529
9.40091
9.47518
9.52865
9.56158
9.5742
9.56918
9.54208
9.49526
9.42949
9.34582
9.24559
9.13005
8.99844
8.85023
8.68516
8.50554
8.30791
8.09586
7.8937
7.71172
7.56121
7.38584
7.12588
1093.07
1021.01
6.01364
7.12648
7.88531
8.38826
8.7322
8.9845
9.18049
9.33774
9.46474
9.5662
9.64513
9.70353
9.74255
9.76277
9.76417
9.75105
9.71537
9.66058
9.5869
9.49473
9.38545
9.26044
9.11803
8.95593
8.77453
8.57812
8.36261
8.12636
7.89198
7.66954
7.47475
7.28693
7.04688
1093.05
1021.12
6.17239
7.25438
7.9633
8.44149
8.78459
9.04178
9.2463
9.41372
9.55193
9.66558
9.7573
9.82833
9.87935
9.9095
9.9178
9.90751
9.87317
9.81868
9.74373
9.64854
9.53451
9.40355
9.25492
9.08702
8.89941
8.69734
8.48266
8.24018
7.96982
7.6961
7.44597
7.22125
6.98415
1093.02
1021.31
6.37496
7.50983
8.2518
8.73352
9.05975
9.30133
9.49288
9.64949
9.77876
9.88464
9.96944
10.0336
10.0773
10.1005
10.1033
10.0901
10.053
9.99358
9.91077
9.80453
9.67785
9.53432
9.37331
9.19466
8.99901
8.78978
8.56427
8.3071
8.02479
7.73738
7.45287
7.1952
6.95532
1093.05
1021.43
6.51167
7.64003
8.35933
8.82164
9.13822
9.38001
9.57631
9.74016
9.8784
9.99347
10.086
10.1567
10.2058
10.2334
10.2402
10.2299
10.1955
10.1384
10.0575
9.9527
9.82445
9.67171
9.49578
9.3034
9.09446
8.86971
8.61871
8.33557
8.0444
7.74998
7.45428
7.18476
6.94869
1093.08
1021.6
6.70564
7.87334
8.59811
9.043
9.3466
9.57887
9.76823
9.92732
10.0611
10.1718
10.2601
10.3263
10.3711
10.3952
10.3985
10.3848
10.3458
10.2841
10.1997
10.0936
9.96584
9.81432
9.63783
9.43555
9.20705
8.95849
8.68018
8.38082
8.08035
7.77138
7.45923
7.18307
6.94672
1093.08
1021.72
6.83992
8.00429
8.70123
9.12702
9.42267
9.6534
9.84615
10.01
10.1491
10.2653
10.3592
10.431
10.4806
10.5074
10.5113
10.4965
10.4562
10.3933
10.3084
10.2036
10.0776
9.92852
9.7549
9.55498
9.32491
9.05868
8.75417
8.43361
8.11029
7.77784
7.45897
7.18348
6.94572
1093.06
1021.88
7.03555
8.21847
8.89614
9.30092
9.58034
9.79998
9.98466
10.1432
10.2795
10.3942
10.4879
10.5602
10.6101
10.6368
10.6403
10.625
10.5854
10.5242
10.4422
10.3404
10.2182
10.0746
9.90871
9.71812
9.4982
9.23932
8.92708
8.57041
8.20533
7.82607
7.47061
7.18711
6.94078
1093.02
1022
7.16856
8.34086
8.98588
9.36853
9.63604
9.85142
10.0348
10.1952
10.3364
10.4594
10.563
10.6446
10.7018
10.7339
10.7414
10.728
10.6908
10.6325
10.5536
10.4534
10.3326
10.1915
10.0295
9.84386
9.62843
9.37371
9.07606
8.73083
8.31711
7.88171
7.49153
7.19516
6.9371
1092.98
1022.15
7.35919
8.5307
9.14745
9.5013
9.74631
9.94411
10.1161
10.2715
10.4138
10.5428
10.6544
10.7438
10.8077
10.8455
10.8583
10.8489
10.8169
10.7646
10.6901
10.593
10.4748
10.3369
10.1789
9.99823
9.78999
9.54695
9.26383
8.92386
8.48822
7.97597
7.53083
7.21238
6.93907
1092.95
1022.27
7.49764
8.65074
9.22978
9.55493
9.781
9.96474
10.1291
10.2862
10.4392
10.5821
10.7097
10.8132
10.8887
10.9359
10.9565
10.9531
10.9278
10.8808
10.8105
10.7168
10.6017
10.4675
10.3143
10.1402
9.93991
9.70912
9.43794
9.0957
8.64666
8.10189
7.59146
7.24203
6.94853
1092.94
1022.45
7.69954
8.83736
9.37504
9.66286
9.85786
10.0147
10.1558
10.3015
10.4618
10.6281
10.7728
10.89
10.9775
11.035
11.0646
11.0693
11.0523
11.0109
10.9453
10.8557
10.7444
10.614
10.4649
10.2955
10.1019
9.87932
9.61285
9.26752
8.80798
8.23883
7.67219
7.28644
6.97155
1092.95
1022.66
7.86371
8.96188
9.45859
9.71682
9.88773
10.0252
10.1548
10.3042
10.4667
10.6351
10.7945
10.9303
11.0348
11.1075
11.1477
11.1634
11.154
11.1188
11.0586
10.9741
10.8677
10.742
10.5974
10.4334
10.2487
10.0339
9.76616
9.41593
8.95323
8.37321
7.77461
7.3477
7.0058
1092.96
1022.98
8.08878
9.13341
9.58338
9.81111
9.95021
10.0501
10.1456
10.2785
10.4488
10.6287
10.7928
10.9341
11.0493
11.1394
11.2078
11.2439
11.2486
11.2224
11.1703
11.0925
10.9912
10.8693
10.7283
10.5675
10.3849
10.1689
9.89637
9.53965
9.07171
8.48749
7.87658
7.42523
7.05196
1092.96
1023.3
8.25484
9.23253
9.65302
9.8693
9.99427
10.058
10.1089
10.1894
10.3451
10.5319
10.7188
10.8867
11.0264
11.1351
11.2138
11.2648
11.2883
11.2866
11.2533
11.1894
11.0984
10.9853
10.852
10.6975
10.5156
10.2929
10.0106
9.64442
9.16866
8.58071
7.9668
7.50368
7.10168
1092.95
1023.57
8.3463
9.31428
9.73204
9.95231
10.078
10.1198
10.1135
10.1343
10.1966
10.3415
10.5198
10.7077
10.8822
11.0324
11.1511
11.235
11.2841
11.2993
11.2854
11.244
11.175
11.0786
10.9566
10.8091
10.6293
10.4043
10.116
9.74161
9.25846
8.66844
8.05268
7.58242
7.15627
1092.95
1023.63
8.35114
9.32394
9.76209
10.0057
10.1559
10.2142
10.2041
10.1558
10.1377
10.1635
10.2581
10.4264
10.6108
10.7928
10.9527
11.0821
11.1765
11.2345
11.2556
11.2425
11.1973
11.1232
11.0217
10.889
10.7185
10.4982
10.2106
9.83372
9.34702
8.75641
8.13985
7.66389
7.21677
1092.96
1023.63
8.34381
9.32846
9.79707
10.0668
10.2417
10.3361
10.3494
10.2987
10.2081
10.1426
10.1351
10.171
10.2798
10.4531
10.6314
10.798
10.938
11.0445
11.1144
11.146
11.1415
11.1025
11.0296
10.9202
10.7687
10.5637
10.2869
9.91621
9.43249
8.84428
8.22842
7.74735
7.28189
1092.99
1023.52
8.26653
9.30273
9.79861
10.0981
10.302
10.4363
10.4938
10.4933
10.4302
10.3166
10.1892
10.1135
10.1031
10.1378
10.2432
10.4068
10.571
10.7201
10.8409
10.9264
10.9732
10.9814
10.9502
10.8774
10.7558
10.5737
10.3202
9.9716
9.5037
8.92779
8.32027
7.83675
7.35412
1093.03
1023.27
8.13195
9.22951
9.78054
10.1007
10.3309
10.4937
10.6012
10.6444
10.6417
10.5856
10.4761
10.3247
10.1681
10.0583
10.019
10.0365
10.124
10.2652
10.4211
10.5574
10.6635
10.7322
10.759
10.7404
10.6695
10.5346
10.3132
9.98622
9.5468
8.99437
8.40497
7.92371
7.42676
1093.08
1022.96
7.99116
9.14
9.73594
10.0911
10.3368
10.5192
10.6533
10.7455
10.7856
10.79
10.7481
10.6574
10.5161
10.3342
10.143
9.98518
9.89181
9.87932
9.93529
10.0522
10.1988
10.329
10.4259
10.4796
10.4789
10.4072
10.2453
9.97177
9.56293
9.04445
8.48356
8.01149
7.50587
1093.16
1022.65
7.86876
9.07116
9.71304
10.0826
10.3397
10.5357
10.6872
10.8018
10.8827
10.9254
10.9316
10.899
10.8234
10.7015
10.5329
10.3269
10.1027
9.89321
9.74464
9.67753
9.70622
9.82099
9.95905
10.0872
10.1744
10.19
10.1127
9.90503
9.55867
9.08187
8.55303
8.09494
7.58885
1093.29
1022.45
7.82796
9.06359
9.71855
10.1036
10.3677
10.5677
10.7253
10.8516
10.9513
11.0235
11.0629
11.0666
11.0306
10.9525
10.8318
10.67
10.4718
10.2419
9.99323
9.75424
9.56925
9.4796
9.49445
9.60767
9.75592
9.86916
9.89146
9.79009
9.51845
9.09435
8.61092
8.17648
7.68137
1093.47
1022.44
7.83062
9.1052
9.789
10.1808
10.4419
10.6361
10.7896
10.9164
11.024
11.1127
11.1765
11.2078
11.2007
11.1506
11.0557
10.915
10.7326
10.5183
10.2755
10.0103
9.7413
9.51974
9.38972
9.35634
9.40123
9.51133
9.60775
9.60194
9.43102
9.08832
8.65402
8.24904
7.77511
1093.7
1022.56
7.97287
9.27395
9.94007
10.3096
10.5518
10.7312
10.8739
10.9961
11.1084
11.2125
11.2992
11.357
11.3737
11.3462
11.2674
11.1421
10.9709
10.7561
10.5023
10.2156
9.90689
9.62127
9.40858
9.2815
9.24614
9.2784
9.34751
9.38756
9.31123
9.05025
8.67848
8.3138
7.86942
1093.93
1022.87
8.17626
9.45188
10.08
10.4238
10.6492
10.8151
10.9469
11.0641
11.1842
11.3113
11.4326
11.5295
11.579
11.5705
11.5104
11.392
11.2208
11.004
10.7419
10.4342
10.0886
9.74799
9.47198
9.2779
9.17501
9.15551
9.18211
9.21328
9.17752
8.98623
8.67851
8.3575
7.94485
1094.09
1023.36
8.43144
9.63118
10.2075
10.5247
10.7345
10.8866
11.0034
11.1096
11.2254
11.3571
11.5034
11.642
11.7541
11.8158
11.7999
11.7029
11.5254
11.2925
11.003
10.6657
10.2831
9.88238
9.53375
9.28643
9.13927
9.07982
9.0795
9.09547
9.0685
8.9235
8.6726
8.39113
8.00429
1094.17
1023.89
8.6239
9.73932
10.2809
10.586
10.7909
10.9341
11.0349
11.1212
11.2306
11.3726
11.5247
11.6584
11.7693
11.8429
11.8732
11.8575
11.7823
11.6154
11.3633
11.0176
10.5832
10.0989
9.65243
9.32172
9.11864
9.02432
9.00253
9.00943
8.98616
8.86847
8.65984
8.41056
8.04043
1094.16
1024.09
8.63871
9.74438
10.298
10.6144
10.8267
10.9713
11.0618
11.1199
11.1815
11.2652
11.4021
11.5512
11.6946
11.8056
11.866
11.8693
11.8206
11.7213
11.545
11.2756
10.9091
10.4374
9.90571
9.45688
9.14962
8.99755
8.94881
8.94613
8.92433
8.82665
8.6485
8.41962
8.04825
1094.09
1024.09
8.62218
9.73672
10.2984
10.6324
10.8629
11.0199
11.1111
11.148
11.1602
11.1804
11.202
11.2792
11.4161
11.5606
11.6888
11.7709
11.7904
11.7363
11.6135
11.4217
11.1292
10.7352
10.2388
9.70388
9.27793
9.02186
8.92038
8.90192
8.87964
8.79525
8.63845
8.42298
8.04883
1094
1023.9
8.50327
9.66872
10.2748
10.6324
10.8877
11.0703
11.1898
11.2454
11.2508
11.2192
11.1867
11.1832
11.2046
11.2856
11.4163
11.539
11.6251
11.6528
11.6062
11.471
11.2549
10.9347
10.5015
9.98047
9.47294
9.11674
8.93518
8.87768
8.85299
8.77784
8.6359
8.42695
8.04449
1093.98
1023.58
8.36349
9.57552
10.2272
10.6154
10.8901
11.0937
11.2387
11.3304
11.3683
11.3609
11.3098
11.2331
11.1713
11.1597
11.1959
11.286
11.3968
11.4794
11.5019
11.4492
11.3036
11.0556
10.6904
10.2178
9.69977
9.25742
8.9932
8.88687
8.83849
8.7631
8.63144
8.43144
8.04728
1094
1023.29
8.24768
9.49869
10.1877
10.6028
10.891
11.108
11.2673
11.3742
11.4334
11.4515
11.4358
11.388
11.3115
11.2247
11.1729
11.1992
11.2808
11.3655
11.4139
11.4028
11.3125
11.1272
10.8362
10.4429
9.95327
9.44526
9.0925
8.92297
8.84782
8.76734
8.63736
8.43962
8.05813
1094.12
1023.2
8.21297
9.48613
10.1855
10.6083
10.9081
11.1365
11.3076
11.425
11.4907
11.5121
11.502
11.4728
11.4328
11.3907
11.3423
11.3024
11.3213
11.3786
11.4232
11.4247
11.3704
11.2295
10.9997
10.6723
10.2215
9.68594
9.23377
8.99032
8.87848
8.78218
8.65467
8.45985
8.09008
1094.32
1023.22
8.20959
9.49207
10.2072
10.6413
10.9482
11.1831
11.3604
11.4833
11.5518
11.5704
11.5549
11.5124
11.4968
11.5081
11.5521
11.616
11.6575
11.6726
11.6634
11.6288
11.547
11.408
11.2018
10.9114
10.4998
9.97168
9.44736
9.09492
8.92119
8.80862
8.67735
8.48673
8.13559
1094.53
1023.48
8.32371
9.57605
10.2725
10.7022
11.011
11.2484
11.4264
11.546
11.6054
11.6067
11.5665
11.5159
11.528
11.6381
11.8405
12.0215
12.1164
12.1206
12.0764
11.9871
11.8619
11.6985
11.4815
11.1795
10.7625
10.2347
9.67775
9.25023
9.00931
8.86249
8.71673
8.52023
8.17506
1094.62
1024.02
8.52526
9.67944
10.3386
10.7608
11.0721
11.3125
11.4912
11.6071
11.6547
11.6381
11.5635
11.4786
11.5014
11.6738
11.9407
12.1915
12.3658
12.4332
12.4044
12.313
12.1781
12.0011
11.7655
11.4446
11.0156
10.4803
9.9055
9.4294
9.12821
8.93685
8.76903
8.5601
8.19654
1094.59
1024.64
8.61496
9.69906
10.3462
10.7682
11.0841
11.3352
11.5256
11.6484
11.6912
11.6593
11.5585
11.4357
11.3791
11.5323
11.8664
12.1623
12.3658
12.4657
12.4801
12.4317
12.3311
12.1752
11.9497
11.6362
11.2159
10.6905
10.1151
9.60729
9.25294
9.01892
8.82254
8.58985
8.19338
1094.35
1024.78
8.62021
9.68571
10.3278
10.7548
11.0794
11.3362
11.5348
11.6776
11.7478
11.7324
11.638
11.4877
11.3464
11.3111
11.373
11.6159
11.9338
12.1495
12.272
12.3034
12.2637
12.1528
11.961
11.6805
11.3018
10.8227
10.2832
9.78229
9.40155
9.12678
8.89667
8.62579
8.15534
1093.93
1024.59
8.43721
9.52478
10.1887
10.6362
10.9836
11.2696
11.5021
11.6808
11.8086
11.8614
11.8448
11.737
11.553
11.339
11.1786
11.1109
11.1123
11.2929
11.525
11.7359
11.8428
11.8613
11.7904
11.6038
11.2876
10.8557
10.3639
9.88576
9.49301
9.19301
8.9383
8.63252
8.08333
1093.58
1023.84
8.17077
9.33113
10.0319
10.4961
10.8534
11.1541
11.4103
11.6289
11.8074
11.9451
12.027
12.0442
11.9888
11.842
11.6064
11.3222
11.0592
10.864
10.769
10.7693
10.9282
11.1056
11.2322
11.26
11.1378
10.8401
10.4344
9.99822
9.6008
9.27547
8.99417
8.66259
8.08182
1093.52
1023.34
7.97028
9.17097
9.91455
10.4067
10.7839
11.101
11.3757
11.6068
11.7974
11.9507
12.0666
12.1435
12.1732
12.1574
12.0737
11.9031
11.6385
11.3013
10.9445
10.6376
10.4363
10.3804
10.4613
10.6307
10.7389
10.6852
10.4204
10.0511
9.67894
9.34471
9.05037
8.70256
8.09202
1093.63
1023.11
7.87104
9.09838
9.87958
10.3926
10.7777
11.0974
11.3766
11.6257
11.8444
12.0271
12.1662
12.2576
12.299
12.2931
12.2387
12.1325
11.9646
11.7209
11.3978
11.0132
10.6211
10.3254
10.2008
10.2199
10.3058
10.3485
10.2756
10.0353
9.71575
9.39462
9.09973
8.7568
8.16925
1094
1023.03
7.81996
9.06435
9.86153
10.3874
10.7835
11.1176
11.414
11.6789
11.9157
12.1232
12.2975
12.4309
12.518
12.5524
12.5293
12.4445
12.2957
12.0794
11.7899
11.4242
10.9894
10.557
10.2395
10.0887
10.0783
10.1118
10.1038
9.96802
9.72213
9.43295
9.14787
8.81481
8.26132
1094.32
1023.04
7.81432
9.07056
9.8876
10.4275
10.8339
11.1775
11.4838
11.7592
12.0097
12.2309
12.4203
12.5749
12.6898
12.7592
12.7754
12.7336
12.621
12.4363
12.1776
11.8383
11.4091
10.9086
10.436
10.1165
9.97909
9.96307
9.96847
9.90678
9.71607
9.46942
9.20231
8.88293
8.36074
1094.63
1023.12
7.8795
9.15121
9.94912
10.4732
10.877
11.2319
11.5647
11.874
12.149
12.3907
12.6019
12.7826
12.9295
13.0347
13.0875
13.0791
12.9987
12.8379
12.5934
12.2662
11.8482
11.3294
10.7677
10.3019
10.0019
9.88545
9.86756
9.83454
9.70781
9.49454
9.24703
8.94579
8.45835
1094.9
1023.39
8.01198
9.24008
10.0129
10.5268
10.9351
11.3014
11.6506
11.9744
12.2678
12.5377
12.7848
13.0061
13.1958
13.3459
13.4458
13.4806
13.4441
13.3151
13.0868
12.7532
12.3103
11.7686
11.1609
10.5974
10.1567
9.91138
9.83373
9.79661
9.70093
9.52179
9.29629
9.01417
8.55622
1095.14
1023.71
8.1415
9.32155
10.0523
10.5448
10.9508
11.3291
11.6884
12.0248
12.3341
12.6121
12.8697
13.1114
13.3309
13.5128
13.6521
13.7295
13.7312
13.6602
13.4922
13.2253
12.8357
12.29
11.6082
10.9196
10.333
9.96289
9.82362
9.77164
9.69139
9.53825
9.33458
9.07021
8.62888
1095.2
1024.09
8.24569
9.35174
10.0558
10.5434
10.9487
11.3298
11.69
12.0285
12.3412
12.628
12.8973
13.1541
13.4013
13.631
13.8036
13.9025
13.9094
13.8363
13.672
13.4204
13.0746
12.6147
12.021
11.3105
10.5986
10.1004
9.85297
9.76067
9.68147
9.55031
9.3678
9.11949
8.68198
1095.17
1024.24
8.25564
9.34857
10.0313
10.4976
10.8887
11.2617
11.6217
11.9621
12.2777
12.5721
12.8562
13.1351
13.401
13.6421
13.8373
13.9702
14.0364
14.0045
13.8654
13.6318
13.3001
12.8571
12.2765
11.5406
10.7377
10.1583
9.8834
9.77066
9.6902
9.56737
9.39678
9.15199
8.67961
1094.9
1024.22
8.23546
9.29793
9.95957
10.4197
10.8074
11.1709
11.5165
11.8392
12.1333
12.3995
12.6564
12.9223
13.2055
13.4932
13.753
13.9491
14.0588
14.0846
14.0285
13.8691
13.5964
13.2083
12.6752
11.9537
11.0644
10.2594
9.89585
9.7746
9.69565
9.57833
9.4158
9.17212
8.68173
1094.74
1023.97
8.11487
9.1945
9.86747
10.3317
10.7183
11.0774
11.42
11.739
12.0263
12.2747
12.4966
12.7111
12.9403
13.1986
13.4757
13.7352
13.9371
14.0542
14.0767
14.0128
13.8602
13.5926
13.1847
12.5926
11.7541
10.7785
10.0633
9.80937
9.72246
9.61455
9.45652
9.21312
8.70952
1094.82
1023.91
8.07811
9.14065
9.80217
10.2584
10.6387
10.993
11.338
11.664
11.9596
12.2143
12.4333
12.6314
12.8283
13.0437
13.2837
13.532
13.7537
13.9129
13.9951
13.9988
13.9285
13.766
13.4967
13.0791
12.4294
11.5053
10.5527
9.97862
9.76461
9.63806
9.49204
9.2558
8.734
1094.95
1023.93
8.06667
9.12005
9.77232
10.2256
10.6077
10.9644
11.3119
11.6434
11.9429
12.1963
12.4032
12.5777
12.7451
12.9382
13.1597
13.3949
13.6126
13.7732
13.8611
13.8781
13.8304
13.7088
13.493
13.1322
12.5761
11.7919
10.8921
10.2176
9.8914
9.71443
9.53895
9.26759
8.72502
1094.89
1023.89
8.04075
9.07076
9.70134
10.1421
10.5209
10.8843
11.2464
11.5973
11.9151
12.1846
12.3918
12.5523
12.6825
12.7942
12.9319
13.1206
13.3393
13.5147
13.6202
13.6512
13.6133
13.5038
13.3021
12.9715
12.4565
11.7437
10.9546
10.3232
9.97658
9.76746
9.56699
9.26228
8.626
1094.33
1023.71
8.00317
9.03689
9.64928
10.0746
10.4433
10.8049
11.178
11.5561
11.9104
12.2028
12.4258
12.582
12.6918
12.7841
12.8782
12.9912
13.1128
13.2502
13.3524
13.3888
13.3543
13.2407
13.0221
12.6667
12.1636
11.5479
10.9226
10.3803
10.044
9.81329
9.58134
9.22405
8.49751
1093.99
1023.71
8.00834
9.03723
9.63483
10.0442
10.4026
10.7644
11.1493
11.5505
11.9323
12.2755
12.5417
12.7266
12.8426
12.9079
12.948
12.9941
13.0656
13.1462
13.2117
13.2376
13.2029
13.0904
12.8732
12.5204
12.0354
11.4831
10.9141
10.4217
10.0854
9.8394
9.59308
9.2229
8.47783
1093.96
1023.73
8.05287
9.04992
9.60707
9.9881
10.3301
10.6879
11.0842
11.5117
11.9288
12.2982
12.5937
12.8084
12.9531
13.0412
13.0861
13.106
13.1197
13.1415
13.167
13.1723
13.1325
13.024
12.8216
12.4937
12.0309
11.4872
10.9469
10.4867
10.1393
9.86848
9.6054
9.22896
8.49
1094.07
1023.75
8.08173
9.06173
9.59004
9.94757
10.2694
10.6144
11.0135
11.4609
11.9081
12.3102
12.6508
12.9028
13.0752
13.187
13.2472
13.268
13.2601
13.2396
13.2194
13.1944
13.14
13.0283
12.8326
12.5203
12.0707
11.534
11.0127
10.5662
10.2078
9.91391
9.63447
9.25807
8.54463
1094.23
1023.88
8.15547
9.09282
9.5816
9.91045
10.2087
10.5358
10.9305
11.393
11.8691
12.3037
12.6659
12.9509
13.1711
13.3219
13.4121
13.4549
13.454
13.4198
13.3702
13.3137
13.2361
13.1131
12.92
12.6264
12.1997
11.6523
11.0762
10.5927
10.2236
9.928
9.65392
9.28646
8.59226
1094.38
1024.02
8.19229
9.0963
9.56579
9.87324
10.1465
10.4442
10.8115
11.2668
11.7618
12.2311
12.6333
12.9498
13.1906
13.3742
13.5143
13.6014
13.6341
13.6254
13.5849
13.5223
13.4328
13.3012
13.1097
12.8358
12.4485
11.9252
11.3153
10.7429
10.3041
9.97916
9.69356
9.33951
8.68339
1094.72
1024.11
8.19613
9.0921
9.54618
9.83746
10.0856
10.3419
10.6551
11.0712
11.5662
12.0669
12.5134
12.8794
13.1603
13.3732
13.5347
13.6538
13.7372
13.7768
13.7749
13.7377
13.6603
13.535
13.3527
13.1002
12.7553
12.2841
11.684
11.0443
10.4993
10.0845
9.75631
9.40511
8.81073
1095.13
1024.15
8.18652
9.06925
9.52807
9.82077
10.0549
10.2738
10.5272
10.8686
11.3227
11.8336
12.3153
12.7228
13.0419
13.2919
13.4865
13.6366
13.7501
13.8317
13.8824
13.8953
13.8624
13.7714
13.6182
13.3981
13.094
12.6762
12.1158
11.4408
10.7752
10.2411
9.85282
9.48163
8.91245
1095.26
1024.14
8.13046
9.02031
9.49493
9.79946
10.0343
10.2308
10.4215
10.677
11.0528
11.5346
12.0379
12.4803
12.8304
13.1033
13.3137
13.4771
13.6082
13.7172
13.8076
13.8702
13.8765
13.8235
13.7036
13.5148
13.2442
12.8691
12.362
11.7246
11.0365
10.4513
10.0073
9.5771
8.94764
1095.21
1024.01
8.05292
8.96704
9.46469
9.78561
10.0314
10.2269
10.3889
10.554
10.8308
11.2492
11.7511
12.2348
12.6293
12.933
13.1589
13.3244
13.4481
13.5481
13.6411
13.7311
13.7874
13.7779
13.6871
13.5103
13.2432
12.8729
12.3792
11.7792
11.1406
10.5807
10.1235
9.64485
8.92606
1094.72
1023.94
7.99197
8.90891
9.42146
9.75983
10.0219
10.2288
10.3883
10.5203
10.6575
10.94
11.3956
11.9085
12.3654
12.7207
12.9798
13.1609
13.2835
13.3682
13.4402
13.5191
13.5819
13.5887
13.5308
13.4008
13.1713
12.8266
12.3591
11.7874
11.1918
10.6609
10.1972
9.66978
8.84741
1094.33
1023.76
7.88321
8.8274
9.36746
9.72834
10.01
10.2341
10.4042
10.5272
10.6281
10.745
10.9945
11.4607
11.9709
12.4087
12.7352
12.9602
13.1033
13.1848
13.2295
13.2678
13.3114
13.3386
13.3111
13.204
13.0134
12.7181
12.3083
11.8004
11.2684
10.7653
10.2963
9.7419
8.85561
1094.29
1023.55
7.77403
8.73824
9.30136
9.68408
9.98803
10.2363
10.431
10.5716
10.6637
10.7332
10.832
11.0453
11.5116
12.0179
12.4424
12.7502
12.9508
13.0645
13.1083
13.1049
13.0775
13.0511
13.0254
12.9628
12.8147
12.5731
12.2286
11.7939
11.3159
10.8457
10.3841
9.81978
8.90068
1094.35
1023.34
7.65157
8.64285
9.23458
9.64003
9.96468
10.2356
10.4571
10.6253
10.7382
10.7986
10.8289
10.8975
11.0711
11.511
12.006
12.4202
12.7192
12.9128
13.0181
13.0444
13.0019
12.9139
12.8188
12.7345
12.6256
12.4406
12.1625
11.7919
11.3668
10.9307
10.4837
9.92823
9.02152
1094.72
1023.14
7.53303
8.54683
9.1657
9.59309
9.93801
10.2325
10.4803
10.6794
10.8248
10.9126
10.9395
10.9339
10.964
11.1075
11.4986
11.9807
12.3858
12.6755
12.8606
12.9545
12.96
12.884
12.7542
12.617
12.4873
12.3301
12.1006
11.7876
11.4193
11.0213
10.5977
10.061
9.17937
1095.12
1022.97
7.42582
8.46302
9.10967
9.5572
9.9196
10.2337
10.5068
10.7368
10.9174
11.0422
11.1021
11.1049
11.0713
11.0684
11.1962
11.5384
11.989
12.3616
12.6252
12.7885
12.8578
12.833
12.7185
12.5573
12.3924
12.2241
12.0192
11.7512
11.4277
11.0712
10.6787
10.1686
9.31367
1095.36
1022.83
7.33276
8.39506
9.06668
9.53413
9.9143
10.2491
10.5476
10.8065
11.0207
11.1833
11.2856
11.3209
11.2969
11.2326
11.1963
11.2988
11.6173
12.0137
12.3417
12.5657
12.6891
12.7162
12.6476
12.4978
12.3215
12.1407
11.9413
11.7045
11.4207
11.0961
10.7325
10.2482
9.41108
1095.44
1022.74
7.27416
8.35269
9.03588
9.51467
9.90966
10.2668
10.5958
10.8929
11.1489
11.3517
11.4937
11.5718
11.5861
11.5343
11.4341
11.3587
11.4375
11.7227
12.0595
12.325
12.4887
12.555
12.5245
12.4037
12.2327
12.0563
11.8728
11.659
11.4018
11.1055
10.766
10.3018
9.47201
1095.47
1022.7
7.25297
8.33738
9.0219
9.50403
9.90291
10.2687
10.6147
10.9385
11.2342
11.4895
11.6966
11.8398
11.9127
11.9163
11.8557
11.733
11.6346
11.6973
11.917
12.1585
12.3358
12.423
12.4137
12.3009
12.1346
11.9597
11.8002
11.6177
11.3894
11.1184
10.8006
10.3569
9.54463
1095.65
1022.7
7.25137
8.33595
9.01618
9.49391
9.89492
10.2673
10.6187
10.9503
11.2639
11.5582
11.8162
12.0252
12.1757
12.2563
12.2541
12.1675
12.0262
11.9332
11.9847
12.1444
12.2873
12.3668
12.3707
12.2969
12.1381
11.9422
11.7544
11.5814
11.3767
11.1292
10.8338
10.4158
9.63561
1095.9
1022.78
7.30053
8.36586
9.01955
9.49007
9.88899
10.2624
10.6149
10.948
11.2647
11.5651
11.8436
12.1004
12.3288
12.4982
12.5926
12.5862
12.4775
12.3291
12.2485
12.2613
12.3408
12.4026
12.4084
12.3454
12.195
11.9832
11.7669
11.5723
11.3705
11.1359
10.8576
10.4612
9.7077
1096.09
1022.94
7.37535
8.39633
9.02451
9.48373
9.87943
10.2489
10.5945
10.9192
11.2291
11.5311
11.826
12.1057
12.3667
12.6073
12.7929
12.8799
12.8657
12.7668
12.6487
12.567
12.5451
12.5442
12.5208
12.444
12.2945
12.0743
11.8275
11.5892
11.3712
11.1455
10.8804
10.5016
9.77801
1096.25
1023.16
7.44977
8.40941
9.01624
9.46229
9.85114
10.215
10.5523
10.8637
11.1564
11.4428
11.735
12.0322
12.3359
12.6313
12.8827
13.0685
13.151
13.136
13.0481
12.9355
12.8455
12.7799
12.7099
12.6055
12.4427
12.2107
11.9312
11.652
11.3936
11.1495
10.8927
10.5327
9.82188
1096.26
1023.33
7.48998
8.41044
8.98836
9.42398
9.81161
10.17
10.4932
10.7812
11.0425
11.2934
11.5548
11.8433
12.1672
12.5172
12.8494
13.1166
13.2936
13.3693
13.3466
13.2583
13.1491
13.0428
12.93
12.7914
12.6061
12.3591
12.0577
11.7404
11.4466
11.179
10.9105
10.5449
9.82196
1096.19
1023.35
7.49325
8.37843
8.93603
9.36917
9.75672
10.1092
10.4193
10.6843
10.9091
11.1081
11.3069
11.5369
11.8274
12.1896
12.5799
12.9304
13.1992
13.3701
13.4405
13.4305
13.3593
13.2575
13.131
12.9731
12.7701
12.5086
12.1898
11.8455
11.5203
11.2256
10.9325
10.5418
9.78674
1095.85
1023.29
7.43969
8.31054
8.86736
9.30361
9.69809
10.0571
10.3705
10.6311
10.8375
10.9964
11.1288
11.264
11.4533
11.7486
12.1368
12.5444
12.9145
13.2085
13.3751
13.4228
13.4
13.333
13.2245
13.0726
12.8708
12.6097
12.2907
11.9374
11.5922
11.2744
10.9591
10.5367
9.70952
1095.48
1023.24
7.39329
8.25225
8.80583
9.24785
9.6523
10.0205
10.3425
10.6098
10.8177
10.967
11.0614
11.1203
11.1956
11.3691
11.6682
12.0554
12.4761
12.8516
13.1221
13.2806
13.3364
13.3113
13.2195
13.0734
12.8758
12.6214
12.3118
11.9692
11.6268
11.3003
10.9623
10.4989
9.60051
1095.14
1023.16
7.33138
8.18379
8.73902
9.18835
9.60295
9.98286
10.3172
10.5955
10.8099
10.962
11.0517
11.0842
11.0841
11.1025
11.2589
11.5652
11.9739
12.3904
12.7289
12.9636
13.1004
13.148
13.124
13.0259
12.8544
12.6129
12.3108
11.9721
11.6399
11.3126
10.9603
10.4611
9.50554
1094.88
1023.03
7.241
8.09342
8.65152
9.10837
9.53413
9.93
10.2851
10.5884
10.8314
11.004
11.1021
11.1204
11.073
11.006
10.9872
11.1142
11.4286
11.8475
12.2478
12.5585
12.7685
12.8847
12.9157
12.8687
12.7424
12.5402
12.2729
11.9653
11.6434
11.3154
10.947
10.4174
9.42392
1094.75
1022.91
7.17108
8.02069
8.5778
9.03718
9.46964
9.87661
10.2469
10.5695
10.8359
11.0482
11.1844
11.2343
11.1979
11.0869
10.9592
10.9246
11.0634
11.3678
11.7284
12.0579
12.3255
12.5207
12.6266
12.6453
12.5802
12.4341
12.2167
11.9467
11.6417
11.3155
10.9463
10.4149
9.41919
1094.75
1022.79
7.08191
7.9314
8.49079
8.95465
9.39521
9.81417
10.2003
10.5427
10.8336
11.066
11.2443
11.3455
11.3556
11.2759
11.1256
10.9735
10.9331
11.0807
11.3544
11.6584
11.9357
12.1589
12.3097
12.3808
12.3718
12.2834
12.1173
11.8866
11.6143
11.3069
10.9468
10.4217
9.4312
1094.82
1022.68
7.01029
7.85558
8.41127
8.87468
9.3189
9.7451
10.1416
10.4981
10.8084
11.0686
11.2756
11.4227
11.4877
11.4696
11.3646
11.2008
11.0501
11.0068
11.1108
11.3322
11.5944
11.8388
12.0269
12.1428
12.1806
12.1403
12.0185
11.8276
11.5841
11.2971
10.9508
10.4446
9.48267
1095
1022.58
6.93215
7.77305
8.32729
8.79194
9.24106
9.67467
10.0801
10.4471
10.7705
11.0485
11.2789
11.4609
11.5782
11.6198
11.5822
11.469
11.3128
11.1676
11.1047
11.1515
11.3056
11.5295
11.7481
11.9109
11.9976
12.0026
11.931
11.7787
11.5644
11.2975
10.9686
10.4834
9.5563
1095.26
1022.51
6.87715
7.70735
8.25604
8.71949
9.17219
9.61188
10.0241
10.3983
10.7302
11.0194
11.2667
11.4686
11.6253
11.7192
11.7441
11.6985
11.5959
11.4641
11.335
11.2441
11.2545
11.3292
11.4883
11.6704
11.8071
11.8654
11.8411
11.7287
11.5446
11.3001
10.99
10.529
9.64216
1095.55
1022.47
6.81993
7.63735
8.18122
8.64468
9.10177
9.54753
9.96577
10.3454
10.683
10.9795
11.2376
11.4565
11.635
11.7676
11.8446
11.8599
11.8205
11.7368
11.6202
11.4936
11.384
11.3507
11.3958
11.4856
11.6163
11.7153
11.7361
11.6716
11.5194
11.2987
11.0107
10.5754
9.72727
1095.78
1022.44
6.77513
7.57613
8.11342
8.57686
9.03802
9.48981
9.91347
10.2971
10.6373
10.9362
11.1981
11.4246
11.6188
11.7749
11.8876
11.954
11.9712
11.942
11.8652
11.7521
11.6262
11.5201
11.4563
11.4722
11.5175
11.5865
11.6312
11.6004
11.4801
11.2855
11.0179
10.6047
9.78439
1095.9
1022.43
6.73232
7.51379
8.04488
8.51037
8.97686
9.43528
9.86408
10.2506
10.5918
10.8907
11.1514
11.3786
11.5796
11.7545
11.8927
11.9936
12.057
12.0766
12.0457
11.9656
11.8508
11.7234
11.6111
11.5355
11.5215
11.5409
11.5569
11.5364
11.4378
11.2641
11.0164
10.6235
9.82429
1095.95
1022.42
6.6919
7.45223
7.97734
8.44667
8.92121
9.38731
9.82198
10.2113
10.5522
10.8484
11.104
11.3252
11.5227
11.7014
11.8569
11.9837
12.0821
12.1441
12.1559
12.1149
12.0263
11.9082
11.7791
11.6635
11.5873
11.549
11.5286
11.4873
11.3951
11.2354
11.0038
10.6281
9.84369
1095.95
1022.43
6.65301
7.38965
7.90897
8.38426
8.87033
9.34648
9.7891
10.1826
10.5239
10.8165
11.065
11.2766
11.4643
11.6371
11.7969
11.937
12.0602
12.1539
12.2051
12.2051
12.1529
12.0581
11.9346
11.8
11.678
11.5894
11.5296
11.4658
11.365
11.2114
10.9898
10.6241
9.84279
1095.93
1022.45
6.61054
7.32356
7.83776
8.32035
8.8206
9.31115
9.76412
10.1642
10.5076
10.7968
11.0366
11.235
11.4072
11.5636
11.7118
11.8534
11.9911
12.1143
12.1963
12.2242
12.2075
12.1499
12.0513
11.9238
11.7872
11.6634
11.5609
11.466
11.3489
11.1907
10.9721
10.6101
9.83012
1095.84
1022.46
6.56139
7.25265
7.76141
8.25079
8.76662
9.27571
9.74357
10.1541
10.5019
10.7914
11.0271
11.2155
11.3681
11.5003
11.6258
11.752
11.8865
12.0246
12.1373
12.2036
12.2081
12.1704
12.0981
11.9947
11.8646
11.7277
11.5994
11.4761
11.3375
11.1693
10.9472
10.5817
9.78514
1095.67
1022.45
6.50449
7.17732
7.67958
8.17308
8.70382
9.23484
9.72483
10.1541
10.5149
10.8085
11.0409
11.219
11.3546
11.4607
11.5466
11.6313
11.7347
11.8617
11.9871
12.0859
12.1461
12.1522
12.0995
12.0072
11.8933
11.7615
11.6211
11.4774
11.3267
11.1479
10.916
10.5378
9.71611
1095.42
1022.41
6.4377
7.09731
7.59119
8.08311
8.62411
9.17651
9.69205
10.1447
10.524
10.8312
11.0719
11.2518
11.3797
11.4667
11.523
11.5626
11.6103
11.6949
11.8106
11.9173
11.9895
12.0275
12.029
11.9828
11.8896
11.7618
11.6212
11.4733
11.3094
11.1213
10.8805
10.4882
9.64053
1095.22
1022.34
6.36991
7.02205
7.50639
7.99099
8.5365
9.10824
9.65201
10.1329
10.5374
10.866
11.1245
11.3173
11.4507
11.5323
11.5658
11.5641
11.5446
11.5421
11.6005
11.7102
11.8199
11.8897
11.9104
11.8903
11.8305
11.7361
11.6094
11.4617
11.2966
11.1019
10.8508
10.4451
9.58193
1095.1
1022.25
6.29832
6.94874
7.42278
7.89382
8.43534
9.02023
9.59169
10.1052
10.5406
10.9008
11.1887
11.4092
11.5668
11.6656
11.704
11.6874
11.618
11.5204
11.4428
11.4433
11.5333
11.6502
11.7305
11.7587
11.739
11.677
11.5794
11.4479
11.2853
11.0868
10.8317
10.423
9.55985
1095.1
1022.15
6.23791
6.89164
7.35608
7.81082
8.34155
8.93034
9.52241
10.0658
10.5346
10.9275
11.2506
11.5086
11.7051
11.8428
11.9183
11.926
11.8594
11.7147
11.535
11.4014
11.3468
11.4127
11.5285
11.6125
11.6387
11.6133
11.5401
11.4272
11.276
11.0835
10.8301
10.4215
9.56073
1095.19
1022.06
6.18205
6.84392
7.30279
7.74409
8.26489
8.85326
9.45831
10.0242
10.5208
10.9455
11.3039
11.6024
11.8458
12.0353
12.1663
12.2299