/*--------------------------------*- C++ -*----------------------------------*\
| =========                 |                                                 |
| \\      /  F ield         | OpenFOAM: The Open Source CFD Toolbox           |
|  \\    /   O peration     | Version:  2.0.x                                 |
|   \\  /    A nd           | Web:      www.OpenFOAM.org                      |
|    \\/     M anipulation  |                                                 |
\*---------------------------------------------------------------------------*/
FoamFile
{
    version     2.0;
    format      ascii;
    class       surfaceScalarField;
    location    "650";
    object      phi;
}
// * * * * * * * * * * * * * * * * * * * * * * * * * * * * * * * * * * * * * //

dimensions      [1 0 -1 0 0 0 0];

internalField   nonuniform List<scalar> 
228225
(
-6.04025e-06
3.74404e-06
2.21123e-06
-1.36466e-05
4.061e-06
3.54538e-06
-1.98249e-05
2.50586e-06
3.67238e-06
-2.3496e-05
1.08923e-07
3.56218e-06
-2.39382e-05
-2.94938e-06
3.39158e-06
-2.19864e-05
-5.21521e-06
3.26335e-06
-1.85909e-05
-6.52218e-06
3.12671e-06
-1.41887e-05
-7.44571e-06
3.04339e-06
-9.09358e-06
-8.07916e-06
2.98404e-06
-3.58143e-06
-8.46825e-06
2.95607e-06
2.13665e-06
-8.66405e-06
2.94593e-06
7.90656e-06
-8.72116e-06
2.95121e-06
1.35874e-05
-8.68635e-06
3.00544e-06
1.90314e-05
-8.51976e-06
3.0757e-06
2.4245e-05
-8.31944e-06
3.10584e-06
2.91749e-05
-8.05072e-06
3.12078e-06
3.37658e-05
-7.71819e-06
3.1273e-06
3.79635e-05
-7.32882e-06
3.13107e-06
4.17295e-05
-6.89772e-06
3.13177e-06
4.50193e-05
-6.42222e-06
3.13244e-06
4.77328e-05
-5.85592e-06
3.14237e-06
4.98881e-05
-5.27891e-06
3.12366e-06
5.13217e-05
-4.54541e-06
3.11176e-06
5.21839e-05
-3.97888e-06
3.11668e-06
5.24163e-05
-3.36061e-06
3.12831e-06
5.1899e-05
-2.63426e-06
3.15155e-06
5.05679e-05
-1.84982e-06
3.18092e-06
4.83363e-05
-9.85333e-07
3.21705e-06
4.48488e-05
2.31284e-07
3.25629e-06
4.0469e-05
1.07971e-06
3.30012e-06
3.48392e-05
2.27948e-06
3.35037e-06
2.77533e-05
3.65567e-06
3.43032e-06
1.90101e-05
5.2148e-06
3.52859e-06
8.86583e-06
6.63007e-06
3.51437e-06
6.55762e-06
2.30821e-06
1.26722e-07
2.22468e-06
1.39271e-06
-1.5669e-06
3.15624e-06
2.59845e-06
-3.20759e-06
1.17509e-06
2.97154e-06
-3.67658e-06
-2.32445e-06
2.90245e-06
-2.70838e-06
-6.5611e-06
2.64362e-06
-7.45149e-07
-9.5434e-06
2.36503e-06
1.93265e-06
-1.1305e-05
2.10505e-06
4.96476e-06
-1.24343e-05
1.95654e-06
8.12719e-06
-1.30928e-05
1.85121e-06
1.12855e-05
-1.34167e-05
1.79022e-06
1.43694e-05
-1.35016e-05
1.75371e-06
1.7279e-05
-1.33637e-05
1.73296e-06
2.00044e-05
-1.313e-05
1.71829e-06
2.25873e-05
-1.27851e-05
1.68249e-06
2.49572e-05
-1.23486e-05
1.6593e-06
2.71055e-05
-1.18478e-05
1.64879e-06
2.90293e-05
-1.12905e-05
1.6486e-06
3.07246e-05
-1.0681e-05
1.65694e-06
3.21767e-05
-1.00223e-05
1.67248e-06
3.33821e-05
-9.32175e-06
1.69425e-06
3.43741e-05
-8.57372e-06
1.72581e-06
3.49685e-05
-7.67092e-06
1.79765e-06
3.52422e-05
-6.6945e-06
1.87551e-06
3.50052e-05
-5.67532e-06
1.93347e-06
3.43255e-05
-4.6504e-06
1.96952e-06
3.32796e-05
-3.61036e-06
2.02207e-06
3.19286e-05
-2.58593e-06
2.08718e-06
3.01483e-05
-1.37111e-06
2.16621e-06
2.76039e-05
5.12824e-07
2.26294e-06
2.46771e-05
1.62642e-06
2.38015e-06
2.10482e-05
3.36679e-06
2.54175e-06
1.62844e-05
5.70388e-06
2.71575e-06
1.02319e-05
8.38257e-06
2.88489e-06
3.94329e-06
1.0121e-05
2.79785e-06
8.77502e-06
1.7259e-06
1.29993e-06
-2.58389e-08
9.50584e-07
4.12988e-06
-1.4822e-06
1.80849e-06
8.00631e-06
-4.7476e-06
2.04625e-06
1.20161e-05
-8.31151e-06
1.97729e-06
1.47212e-05
-1.11714e-05
1.9052e-06
1.65874e-05
-1.3052e-05
1.64239e-06
1.79749e-05
-1.41794e-05
1.48696e-06
1.8902e-05
-1.47817e-05
1.4203e-06
1.9504e-05
-1.50521e-05
1.35735e-06
1.98819e-05
-1.51153e-05
1.32059e-06
2.01065e-05
-1.50279e-05
1.30172e-06
2.02725e-05
-1.48164e-05
1.28662e-06
2.04163e-05
-1.45137e-05
1.23992e-06
2.05598e-05
-1.41436e-05
1.21505e-06
2.07162e-05
-1.37105e-05
1.20539e-06
2.08727e-05
-1.3212e-05
1.20776e-06
2.10173e-05
-1.26532e-05
1.21809e-06
2.11367e-05
-1.20346e-05
1.23417e-06
2.12128e-05
-1.13541e-05
1.25575e-06
2.1221e-05
-1.06122e-05
1.28235e-06
2.1149e-05
-9.81458e-06
1.31287e-06
2.10926e-05
-8.96202e-06
1.34752e-06
2.10302e-05
-8.02576e-06
1.3937e-06
2.08103e-05
-6.92492e-06
1.46955e-06
2.03463e-05
-5.74044e-06
1.55412e-06
1.96244e-05
-4.51044e-06
1.62205e-06
1.86486e-05
-3.30052e-06
1.69041e-06
1.74063e-05
-1.90491e-06
1.77627e-06
1.5978e-05
7.27998e-08
1.86838e-06
1.42252e-05
1.41416e-06
1.96522e-06
1.18984e-05
3.61337e-06
2.08035e-06
8.86505e-06
6.54479e-06
2.19262e-06
5.1788e-06
9.7722e-06
2.29677e-06
1.82862e-06
1.12589e-05
2.21247e-06
9.30784e-06
1.2958e-06
2.99496e-07
-1.07966e-06
7.54339e-07
2.37733e-06
-4.81877e-06
1.25873e-06
5.07522e-06
-8.75316e-06
1.30766e-06
7.45539e-06
-1.18613e-05
1.16957e-06
9.20635e-06
-1.38242e-05
9.01841e-07
1.03015e-05
-1.49762e-05
8.2897e-07
1.09922e-05
-1.56119e-05
7.41764e-07
1.15491e-05
-1.59724e-05
6.33811e-07
1.20857e-05
-1.61549e-05
5.66169e-07
1.26036e-05
-1.6203e-05
5.69808e-07
1.31183e-05
-1.61287e-05
5.8611e-07
1.3644e-05
-1.59487e-05
6.06581e-07
1.41728e-05
-1.56728e-05
6.30314e-07
1.4684e-05
-1.53093e-05
6.54444e-07
1.51584e-05
-1.4864e-05
6.79079e-07
1.55828e-05
-1.43409e-05
7.04496e-07
1.59374e-05
-1.37407e-05
7.32838e-07
1.62012e-05
-1.30644e-05
7.6599e-07
1.63581e-05
-1.2316e-05
8.04915e-07
1.63955e-05
-1.15e-05
8.50381e-07
1.62977e-05
-1.06193e-05
9.02514e-07
1.60526e-05
-9.67727e-06
9.60437e-07
1.56813e-05
-8.67828e-06
1.0238e-06
1.52794e-05
-7.61803e-06
1.09502e-06
1.48204e-05
-6.46107e-06
1.17966e-06
1.42402e-05
-5.19795e-06
1.26779e-06
1.34194e-05
-3.85591e-06
1.37621e-06
1.24267e-05
-2.39679e-06
1.48463e-06
1.13087e-05
-4.07927e-07
1.59878e-06
9.89876e-06
1.11793e-06
1.70628e-06
8.2586e-06
3.42914e-06
1.82449e-06
6.00845e-06
6.85831e-06
1.9367e-06
3.31402e-06
1.04458e-05
2.0209e-06
9.52034e-07
1.17614e-05
1.85959e-06
9.27188e-06
9.87988e-07
5.92693e-07
-2.1229e-06
4.50478e-07
2.17508e-06
-7.04387e-06
6.42642e-07
4.02945e-06
-1.10802e-05
4.72567e-07
5.63641e-06
-1.3762e-05
2.93695e-07
6.99234e-06
-1.53758e-05
1.95629e-07
8.22233e-06
-1.63396e-05
1.33441e-07
9.4077e-06
-1.69249e-05
1.27642e-07
1.04597e-05
-1.72567e-05
2.32248e-07
1.14172e-05
-1.73937e-05
2.81261e-07
1.23091e-05
-1.7367e-05
2.72114e-07
1.31152e-05
-1.72124e-05
2.77551e-07
1.38252e-05
-1.6946e-05
2.87235e-07
1.44319e-05
-1.65805e-05
3.01022e-07
1.49315e-05
-1.61301e-05
3.21249e-07
1.53304e-05
-1.56143e-05
3.51408e-07
1.56279e-05
-1.50232e-05
3.84828e-07
1.58148e-05
-1.43499e-05
4.22412e-07
1.58817e-05
-1.35973e-05
4.65959e-07
1.58291e-05
-1.27791e-05
5.15786e-07
1.56635e-05
-1.19061e-05
5.71736e-07
1.53938e-05
-1.09833e-05
6.33733e-07
1.50221e-05
-1.00092e-05
7.03612e-07
1.45359e-05
-8.97595e-06
7.83836e-07
1.39224e-05
-7.87313e-06
8.68694e-07
1.31956e-05
-6.69835e-06
9.64063e-07
1.23863e-05
-5.44686e-06
1.05822e-06
1.14961e-05
-4.13209e-06
1.16645e-06
1.05351e-05
-2.71501e-06
1.27925e-06
9.52917e-06
-8.03492e-07
1.40154e-06
8.26357e-06
8.69129e-07
1.51446e-06
6.87852e-06
3.18155e-06
1.63269e-06
4.97368e-06
7.02853e-06
1.73467e-06
2.78835e-06
1.08663e-05
1.76488e-06
8.37482e-07
1.21314e-05
1.58093e-06
9.29863e-06
8.10734e-07
6.4214e-07
-3.0493e-06
2.84059e-07
2.03677e-06
-8.75176e-06
3.13096e-07
3.61757e-06
-1.28684e-05
2.07366e-07
5.13028e-06
-1.53893e-05
1.14551e-07
6.47998e-06
-1.67791e-05
5.34923e-08
7.66518e-06
-1.75517e-05
2.68004e-08
8.69733e-06
-1.79678e-05
1.06664e-08
9.59969e-06
-1.81499e-05
-9.18695e-09
1.03834e-05
-1.81695e-05
-7.89237e-09
1.10518e-05
-1.80548e-05
1.93307e-08
1.16191e-05
-1.7822e-05
4.23569e-08
1.21044e-05
-1.74938e-05
6.2452e-08
1.25219e-05
-1.70772e-05
7.91186e-08
1.28744e-05
-1.65743e-05
9.16976e-08
1.31419e-05
-1.59791e-05
9.73122e-08
1.33042e-05
-1.53033e-05
1.17798e-07
1.33665e-05
-1.45597e-05
1.47466e-07
1.33454e-05
-1.37633e-05
1.87064e-07
1.325e-05
-1.29189e-05
2.35159e-07
1.30846e-05
-1.20317e-05
2.90949e-07
1.28495e-05
-1.11036e-05
3.55363e-07
1.2541e-05
-1.01315e-05
4.30831e-07
1.21538e-05
-9.10778e-06
5.19059e-07
1.1672e-05
-8.01599e-06
6.24639e-07
1.10981e-05
-6.85291e-06
7.28432e-07
1.043e-05
-5.6222e-06
8.43518e-07
9.68469e-06
-4.35095e-06
9.64151e-07
8.91372e-06
-3.0323e-06
1.08829e-06
8.19193e-06
-1.30665e-06
1.22498e-06
7.02761e-06
6.8276e-07
1.35073e-06
5.76841e-06
2.9658e-06
1.475e-06
4.13476e-06
7.08884e-06
1.57337e-06
2.27847e-06
1.11356e-05
1.58704e-06
6.28561e-07
1.23887e-05
1.39261e-06
9.24002e-06
6.8717e-07
4.75027e-07
-3.65039e-06
1.25833e-07
1.50623e-06
-9.82222e-06
3.9093e-08
2.71066e-06
-1.39689e-05
-1.04058e-07
3.92354e-06
-1.639e-05
-2.1234e-07
5.1e-06
-1.76858e-05
-2.69803e-07
6.20641e-06
-1.83725e-05
-2.85653e-07
7.24338e-06
-1.87262e-05
-2.78633e-07
8.21992e-06
-1.88667e-05
-2.59763e-07
9.14039e-06
-1.8851e-05
-2.39007e-07
9.99604e-06
-1.86906e-05
-2.19846e-07
1.07832e-05
-1.84075e-05
-2.01745e-07
1.14881e-05
-1.80167e-05
-1.81944e-07
1.21e-05
-1.75299e-05
-1.59333e-07
1.26095e-05
-1.69513e-05
-1.32616e-07
1.29883e-05
-1.62591e-05
-9.87654e-08
1.32463e-05
-1.54883e-05
-7.30024e-08
1.33895e-05
-1.46721e-05
-3.08415e-08
1.34267e-05
-1.38169e-05
1.63846e-08
1.33625e-05
-1.29232e-05
6.8452e-08
1.31999e-05
-1.19957e-05
1.26622e-07
1.29403e-05
-1.1037e-05
1.93067e-07
1.25808e-05
-1.0041e-05
2.69055e-07
1.21198e-05
-9.00181e-06
3.5498e-07
1.15691e-05
-7.91502e-06
4.49748e-07
1.09437e-05
-6.77421e-06
5.46682e-07
1.0246e-05
-5.58015e-06
6.55629e-07
9.47649e-06
-4.35527e-06
7.73831e-07
8.64973e-06
-3.1012e-06
8.95651e-07
7.8314e-06
-1.51459e-06
1.02626e-06
6.6015e-06
7.43398e-07
1.16926e-06
5.27436e-06
2.99469e-06
1.29826e-06
3.73678e-06
7.21544e-06
1.41098e-06
2.08601e-06
1.13674e-05
1.41897e-06
6.30778e-07
1.26213e-05
1.22269e-06
9.28921e-06
5.81591e-07
5.20357e-07
-4.21992e-06
4.89547e-08
1.60787e-06
-1.0847e-05
-6.28663e-08
2.88779e-06
-1.50694e-05
-1.79606e-07
4.16377e-06
-1.74085e-05
-2.57534e-07
5.37048e-06
-1.85992e-05
-2.93375e-07
6.50794e-06
-1.91984e-05
-3.11637e-07
7.57425e-06
-1.94724e-05
-3.20097e-07
8.55885e-06
-1.95292e-05
-3.22145e-07
9.45536e-06
-1.94292e-05
-3.1834e-07
1.02519e-05
-1.91738e-05
-3.13338e-07
1.0956e-05
-1.88052e-05
-3.0644e-07
1.15585e-05
-1.8321e-05
-2.98227e-07
1.20378e-05
-1.77204e-05
-2.88797e-07
1.23896e-05
-1.70257e-05
-2.77366e-07
1.26659e-05
-1.62767e-05
-2.58741e-07
1.28816e-05
-1.54772e-05
-2.26896e-07
1.30392e-05
-1.46281e-05
-2.01558e-07
1.31149e-05
-1.37192e-05
-1.73446e-07
1.30876e-05
-1.27567e-05
-1.39216e-07
1.29466e-05
-1.17581e-05
-9.6648e-08
1.26948e-05
-1.07405e-05
-4.47214e-08
1.23436e-05
-9.7072e-06
1.74769e-08
1.19069e-05
-8.6558e-06
9.07095e-08
1.13973e-05
-7.57971e-06
1.74242e-07
1.08286e-05
-6.46828e-06
2.62864e-07
1.01996e-05
-5.31867e-06
3.67484e-07
9.48385e-06
-4.12379e-06
4.84336e-07
8.59263e-06
-2.8218e-06
6.11885e-07
7.43989e-06
-1.123e-06
7.61217e-07
6.334e-06
9.09298e-07
9.40073e-07
4.98407e-06
3.23721e-06
1.10749e-06
3.46318e-06
7.45391e-06
1.28251e-06
1.90021e-06
1.16277e-05
1.30276e-06
5.58179e-07
1.28605e-05
1.10293e-06
9.3335e-06
5.13898e-07
4.60685e-07
-4.64753e-06
-3.32318e-08
1.4208e-06
-1.16129e-05
-1.94317e-07
2.54783e-06
-1.5873e-05
-3.23469e-07
3.69146e-06
-1.81456e-05
-4.06592e-07
4.80459e-06
-1.92693e-05
-4.43106e-07
5.88001e-06
-1.98151e-05
-4.58811e-07
6.90951e-06
-2.00413e-05
-4.60676e-07
7.88482e-06
-2.00494e-05
-4.55101e-07
8.78714e-06
-1.98857e-05
-4.45882e-07
9.61331e-06
-1.95633e-05
-4.36775e-07
1.03351e-05
-1.90985e-05
-4.28491e-07
1.09438e-05
-1.85098e-05
-4.19984e-07
1.14577e-05
-1.78281e-05
-4.06172e-07
1.18841e-05
-1.70683e-05
-3.83796e-07
1.2227e-05
-1.62568e-05
-3.62753e-07
1.24887e-05
-1.53956e-05
-3.43255e-07
1.26556e-05
-1.44717e-05
-3.2332e-07
1.27119e-05
-1.34758e-05
-2.997e-07
1.26422e-05
-1.24174e-05
-2.69546e-07
1.24409e-05
-1.13249e-05
-2.31864e-07
1.21166e-05
-1.02296e-05
-1.86624e-07
1.16872e-05
-9.14468e-06
-1.33166e-07
1.11766e-05
-8.07412e-06
-7.10572e-08
1.06094e-05
-7.01147e-06
-1.0539e-09
1.00103e-05
-5.94169e-06
7.25341e-08
9.37719e-06
-4.84395e-06
1.58437e-07
8.66615e-06
-3.66889e-06
2.56163e-07
7.78759e-06
-2.3143e-06
3.71096e-07
6.71936e-06
-5.7606e-07
5.21326e-07
5.81871e-06
1.12288e-06
6.87109e-07
4.52382e-06
3.65766e-06
8.74495e-07
3.06633e-06
7.84057e-06
1.07088e-06
1.64912e-06
1.19026e-05
1.1424e-06
4.67407e-07
1.30663e-05
9.75936e-07
9.36063e-06
4.40278e-07
4.73879e-07
-5.05196e-06
-6.95177e-08
1.44677e-06
-1.2363e-05
-2.22833e-07
2.58164e-06
-1.6681e-05
-3.26859e-07
3.72085e-06
-1.88943e-05
-3.90538e-07
4.81999e-06
-1.99448e-05
-4.23665e-07
5.87423e-06
-2.0424e-05
-4.45335e-07
6.87439e-06
-2.05824e-05
-4.59096e-07
7.81415e-06
-2.05228e-05
-4.66448e-07
8.67936e-06
-2.02787e-05
-4.72246e-07
9.44234e-06
-1.98512e-05
-4.7507e-07
1.00745e-05
-1.92563e-05
-4.74332e-07
1.05906e-05
-1.85575e-05
-4.68373e-07
1.10168e-05
-1.77913e-05
-4.62999e-07
1.13727e-05
-1.69626e-05
-4.61549e-07
1.16392e-05
-1.60646e-05
-4.58808e-07
1.18026e-05
-1.51064e-05
-4.52596e-07
1.18641e-05
-1.40923e-05
-4.40998e-07
1.18283e-05
-1.3017e-05
-4.22928e-07
1.16956e-05
-1.18857e-05
-3.99013e-07
1.14685e-05
-1.07291e-05
-3.68728e-07
1.11543e-05
-9.58596e-06
-3.29338e-07
1.07577e-05
-8.46697e-06
-2.81115e-07
1.02833e-05
-7.37562e-06
-2.23982e-07
9.74184e-06
-6.3108e-06
-1.59195e-07
9.15407e-06
-5.26233e-06
-9.1525e-08
8.52116e-06
-4.19895e-06
-1.20351e-08
7.82529e-06
-3.0523e-06
7.93597e-08
7.03986e-06
-1.71612e-06
1.87336e-07
6.2241e-06
-8.12802e-08
3.21079e-07
5.36134e-06
1.52137e-06
4.64388e-07
4.07305e-06
4.29196e-06
6.5413e-07
2.66855e-06
8.3829e-06
8.62287e-07
1.37964e-06
1.22187e-05
9.72852e-07
3.43605e-07
1.32571e-05
8.45392e-07
9.33516e-06
3.69074e-07
4.73898e-07
-5.41528e-06
-1.10526e-07
1.39345e-06
-1.30044e-05
-2.78157e-07
2.4315e-06
-1.73336e-05
-3.85428e-07
3.46395e-06
-1.94729e-05
-4.53855e-07
4.46276e-06
-2.04545e-05
-4.8902e-07
5.42337e-06
-2.0874e-05
-5.10516e-07
6.33133e-06
-2.09673e-05
-5.2299e-07
7.16899e-06
-2.08309e-05
-5.29484e-07
7.88893e-06
-2.04631e-05
-5.35512e-07
8.50421e-06
-1.99259e-05
-5.40501e-07
9.05249e-06
-1.92617e-05
-5.42813e-07
9.53594e-06
-1.84958e-05
-5.45173e-07
9.92056e-06
-1.7628e-05
-5.4785e-07
1.01788e-05
-1.6673e-05
-5.47841e-07
1.03132e-05
-1.56552e-05
-5.4379e-07
1.03402e-05
-1.45979e-05
-5.35377e-07
1.02833e-05
-1.35129e-05
-5.22406e-07
1.01635e-05
-1.23927e-05
-5.04437e-07
9.9831e-06
-1.12244e-05
-4.80876e-07
9.73926e-06
-1.00339e-05
-4.51243e-07
9.44263e-06
-8.873e-06
-4.16293e-07
9.09846e-06
-7.74916e-06
-3.73592e-07
8.70625e-06
-6.66031e-06
-3.23057e-07
8.26319e-06
-5.60177e-06
-2.65925e-07
7.77169e-06
-4.56417e-06
-2.06607e-07
7.23199e-06
-3.52175e-06
-1.37446e-07
6.65387e-06
-2.41555e-06
-5.85625e-08
6.03215e-06
-1.12881e-06
3.44838e-08
5.37365e-06
4.28459e-07
1.48853e-07
4.56916e-06
2.04916e-06
2.76822e-07
3.46978e-06
4.93526e-06
4.56206e-07
2.21818e-06
8.97182e-06
6.62785e-07
1.09097e-06
1.25536e-05
7.92448e-07
2.11344e-07
1.3437e-05
6.9981e-07
9.26219e-06
2.8432e-07
4.49946e-07
-5.74449e-06
-1.20557e-07
1.30845e-06
-1.36013e-05
-2.61414e-07
2.26797e-06
-1.79495e-05
-3.43573e-07
3.21652e-06
-2.00194e-05
-4.01943e-07
4.13241e-06
-2.09303e-05
-4.40105e-07
5.01289e-06
-2.12841e-05
-4.70378e-07
5.84573e-06
-2.13057e-05
-4.94392e-07
6.6186e-06
-2.1091e-05
-5.1274e-07
7.27782e-06
-2.05915e-05
-5.30723e-07
7.85105e-06
-1.99526e-05
-5.46531e-07
8.32478e-06
-1.91743e-05
-5.61078e-07
8.67102e-06
-1.82668e-05
-5.75147e-07
8.88121e-06
-1.72518e-05
-5.8634e-07
8.96972e-06
-1.61675e-05
-5.93925e-07
8.96174e-06
-1.50498e-05
-5.97292e-07
8.88278e-06
-1.3923e-05
-5.95906e-07
8.75545e-06
-1.27961e-05
-5.89429e-07
8.60056e-06
-1.16603e-05
-5.77506e-07
8.42748e-06
-1.04917e-05
-5.59516e-07
8.22382e-06
-9.29505e-06
-5.35131e-07
7.98747e-06
-8.1321e-06
-5.04489e-07
7.72035e-06
-7.01411e-06
-4.67855e-07
7.4218e-06
-5.93692e-06
-4.24768e-07
7.08849e-06
-4.8927e-06
-3.75688e-07
6.71617e-06
-3.868e-06
-3.23788e-07
6.29172e-06
-2.83368e-06
-2.63541e-07
5.80626e-06
-1.73584e-06
-1.94155e-07
5.26587e-06
-4.7724e-07
-1.11086e-07
4.76873e-06
9.33123e-07
-7.40074e-09
3.97201e-06
2.73492e-06
1.11102e-07
2.9675e-06
5.65569e-06
2.84229e-07
1.86243e-06
9.58829e-06
4.88713e-07
8.92581e-07
1.28953e-05
6.28286e-07
1.49678e-07
1.36127e-05
5.67405e-07
9.19666e-06
2.15214e-07
4.30496e-07
-6.0427e-06
-1.3198e-07
1.22231e-06
-1.41342e-05
-2.58756e-07
2.08072e-06
-1.84727e-05
-3.35104e-07
2.91392e-06
-2.0453e-05
-3.99467e-07
3.71016e-06
-2.12838e-05
-4.42638e-07
4.46568e-06
-2.15637e-05
-4.75775e-07
5.16168e-06
-2.15001e-05
-5.0156e-07
5.74773e-06
-2.11548e-05
-5.22179e-07
6.28964e-06
-2.05859e-05
-5.47395e-07
6.74661e-06
-1.9839e-05
-5.70477e-07
7.07417e-06
-1.89094e-05
-5.9236e-07
7.25939e-06
-1.784e-05
-6.11887e-07
7.32308e-06
-1.66875e-05
-6.27946e-07
7.29684e-06
-1.55019e-05
-6.39274e-07
7.21064e-06
-1.43185e-05
-6.44982e-07
7.08819e-06
-1.31557e-05
-6.44776e-07
6.94653e-06
-1.20155e-05
-6.38882e-07
6.79942e-06
-1.08855e-05
-6.27546e-07
6.6604e-06
-9.74185e-06
-6.10737e-07
6.52185e-06
-8.56817e-06
-5.88255e-07
6.36651e-06
-7.41563e-06
-5.61044e-07
6.19141e-06
-6.30997e-06
-5.28953e-07
5.99325e-06
-5.24694e-06
-4.91744e-07
5.76613e-06
-4.21552e-06
-4.49989e-07
5.50328e-06
-3.19883e-06
-4.06245e-07
5.19091e-06
-2.1665e-06
-3.5473e-07
4.82151e-06
-1.07192e-06
-2.94439e-07
4.41065e-06
1.55856e-07
-2.22133e-07
4.0319e-06
1.45158e-06
-1.39585e-07
3.34804e-06
3.44634e-06
-2.7403e-08
2.46593e-06
6.40687e-06
1.31077e-07
1.5104e-06
1.02206e-05
3.23348e-07
6.95897e-07
1.32447e-05
4.65182e-07
8.32334e-08
1.37914e-05
4.34119e-07
9.13115e-06
1.48744e-07
4.01243e-07
-6.32394e-06
-1.19609e-07
1.13417e-06
-1.46714e-05
-1.95476e-07
1.91216e-06
-1.90062e-05
-2.44261e-07
2.6584e-06
-2.08894e-05
-3.09679e-07
3.36874e-06
-2.16304e-05
-3.63618e-07
4.04263e-06
-2.18278e-05
-4.09683e-07
4.67119e-06
-2.16814e-05
-4.47159e-07
5.19046e-06
-2.11868e-05
-4.87135e-07
5.60861e-06
-2.04813e-05
-5.22682e-07
5.8771e-06
-1.95495e-05
-5.57843e-07
6.00058e-06
-1.84412e-05
-5.91572e-07
6.00902e-06
-1.72263e-05
-6.21984e-07
5.94115e-06
-1.59725e-05
-6.47002e-07
5.83276e-06
-1.47281e-05
-6.65279e-07
5.70967e-06
-1.3519e-05
-6.76328e-07
5.58663e-06
-1.23522e-05
-6.80343e-07
5.47035e-06
-1.12211e-05
-6.77951e-07
5.36447e-06
-1.01098e-05
-6.6975e-07
5.27404e-06
-8.99531e-06
-6.5601e-07
5.20063e-06
-7.85798e-06
-6.36678e-07
5.11651e-06
-6.71888e-06
-6.12544e-07
5.01579e-06
-5.6251e-06
-5.84061e-07
4.8954e-06
-4.57528e-06
-5.5119e-07
4.75207e-06
-3.55769e-06
-5.14416e-07
4.58419e-06
-2.55518e-06
-4.75696e-07
4.38607e-06
-1.53804e-06
-4.30251e-07
4.14633e-06
-4.54764e-07
-3.77331e-07
3.90595e-06
7.10413e-07
-3.14081e-07
3.47883e-06
2.11929e-06
-2.40469e-07
2.87259e-06
4.19118e-06
-1.38455e-07
2.09552e-06
7.17819e-06
5.89604e-09
1.265e-06
1.08672e-05
1.83993e-07
5.77774e-07
1.36105e-05
3.21575e-07
6.52921e-08
1.39867e-05
3.17427e-07
9.09973e-06
9.67203e-08
4.21099e-07
-6.64005e-06
-1.04554e-07
1.15313e-06
-1.52748e-05
-1.28334e-07
1.88792e-06
-1.95812e-05
-1.59626e-07
2.56602e-06
-2.13303e-05
-2.37123e-07
3.1907e-06
-2.19506e-05
-3.04299e-07
3.75127e-06
-2.20279e-05
-3.60458e-07
4.21217e-06
-2.17386e-05
-4.03575e-07
4.60504e-06
-2.11228e-05
-4.56753e-07
4.84315e-06
-2.02125e-05
-5.06751e-07
4.91786e-06
-1.90682e-05
-5.55867e-07
4.86419e-06
-1.77858e-05
-6.01639e-07
4.73746e-06
-1.6459e-05
-6.40477e-07
4.5869e-06
-1.51516e-05
-6.70201e-07
4.44396e-06
-1.38946e-05
-6.90402e-07
4.32304e-06
-1.26962e-05
-7.01799e-07
4.227e-06
-1.15505e-05
-7.05557e-07
4.15313e-06
-1.04443e-05
-7.02896e-07
4.09836e-06
-9.36005e-06
-6.94846e-07
4.06276e-06
-8.27761e-06
-6.81994e-07
4.04721e-06
-7.17777e-06
-6.64565e-07
4.03109e-06
-6.05986e-06
-6.42801e-07
4.00496e-06
-4.98119e-06
-6.17705e-07
3.9624e-06
-3.94328e-06
-5.8935e-07
3.89816e-06
-2.93531e-06
-5.58064e-07
3.81e-06
-1.94174e-06
-5.25203e-07
3.69362e-06
-9.35028e-07
-4.86557e-07
3.53493e-06
1.44283e-07
-4.4028e-07
3.35378e-06
1.27881e-06
-3.87149e-07
2.96765e-06
2.82527e-06
-3.19732e-07
2.41241e-06
4.97428e-06
-2.27722e-07
1.7226e-06
7.96709e-06
-9.89507e-08
1.01448e-06
1.15152e-05
6.03101e-08
4.50149e-07
1.39866e-05
1.88287e-07
3.40348e-08
1.41987e-05
2.04219e-07
9.09037e-06
4.33986e-08
4.6658e-07
-7.04141e-06
-6.4821e-08
1.21557e-06
-1.60245e-05
9.10567e-10
1.90165e-06
-2.02713e-05
4.23139e-09
2.50995e-06
-2.18533e-05
-8.5144e-08
3.06147e-06
-2.23277e-05
-1.74304e-07
3.54995e-06
-2.22608e-05
-2.55465e-07
3.89668e-06
-2.17531e-05
-3.32116e-07
4.07707e-06
-2.0902e-05
-4.01023e-07
4.06563e-06
-1.97277e-05
-4.73222e-07
3.89851e-06
-1.83572e-05
-5.43758e-07
3.65435e-06
-1.69355e-05
-6.05927e-07
3.40755e-06
-1.55569e-05
-6.55195e-07
3.20298e-06
-1.42562e-05
-6.90624e-07
3.05645e-06
-1.30343e-05
-7.13675e-07
2.96566e-06
-1.18787e-05
-7.26574e-07
2.92034e-06
-1.07737e-05
-7.31363e-07
2.90889e-06
-9.70306e-06
-7.2966e-07
2.92205e-06
-8.65041e-06
-7.22699e-07
2.95389e-06
-7.59815e-06
-7.11205e-07
3.00106e-06
-6.5294e-06
-6.95449e-07
3.05724e-06
-5.44048e-06
-6.75465e-07
3.11047e-06
-4.38181e-06
-6.52535e-07
3.14962e-06
-3.3554e-06
-6.26956e-07
3.1648e-06
-2.35135e-06
-5.99061e-07
3.15048e-06
-1.35753e-06
-5.69822e-07
3.1069e-06
-3.55653e-07
-5.35723e-07
3.04535e-06
7.00731e-07
-4.94821e-07
2.84989e-06
1.9215e-06
-4.47148e-07
2.51515e-06
3.54557e-06
-3.85452e-07
2.02667e-06
5.76393e-06
-3.01051e-07
1.42107e-06
8.75666e-06
-1.83864e-07
8.20658e-07
1.21555e-05
-3.98011e-08
3.57843e-07
1.43701e-05
7.94826e-08
1.71574e-08
1.44261e-05
1.13435e-07
9.09595e-06
1.1576e-08
5.30898e-07
-7.56167e-06
-1.03348e-08
1.255e-06
-1.69007e-05
1.52206e-07
1.8028e-06
-2.10022e-05
1.83221e-07
2.23142e-06
-2.23601e-05
7.82374e-08
2.58588e-06
-2.26505e-05
-3.16523e-08
2.82409e-06
-2.23708e-05
-1.2809e-07
2.95338e-06
-2.16448e-05
-2.37464e-07
2.86646e-06
-2.04745e-05
-3.40565e-07
2.58181e-06
-1.89992e-05
-4.43732e-07
2.20422e-06
-1.74394e-05
-5.40098e-07
1.84387e-06
-1.59559e-05
-6.19213e-07
1.56437e-06
-1.46005e-05
-6.76753e-07
1.38334e-06
-1.33605e-05
-7.14646e-07
1.29206e-06
-1.22057e-05
-7.37191e-07
1.27222e-06
-1.11103e-05
-7.48462e-07
1.30491e-06
-1.00548e-05
-7.51509e-07
1.37437e-06
-9.02401e-06
-7.48437e-07
1.46931e-06
-8.00452e-06
-7.40759e-07
1.58324e-06
-6.98268e-06
-7.29333e-07
1.71448e-06
-5.94612e-06
-7.14458e-07
1.86173e-06
-4.89154e-06
-6.96127e-07
2.0044e-06
-3.84887e-06
-6.75556e-07
2.13288e-06
-2.83073e-06
-6.53101e-07
2.24076e-06
-1.83016e-06
-6.29021e-07
2.32311e-06
-8.36135e-07
-6.037e-07
2.37423e-06
1.67526e-07
-5.7425e-07
2.38741e-06
1.22737e-06
-5.39775e-07
2.2539e-06
2.55234e-06
-4.97263e-07
1.97817e-06
4.26334e-06
-4.41974e-07
1.55448e-06
6.55388e-06
-3.66188e-07
1.02793e-06
9.54385e-06
-2.60564e-07
5.34238e-07
1.27795e-05
-1.30333e-07
1.92124e-07
1.47325e-05
-2.02071e-08
-4.16464e-08
1.46332e-05
2.66943e-08
9.0839e-06
-2.95901e-08
4.98839e-07
-8.13988e-06
7.94849e-08
1.03275e-06
-1.77958e-05
3.61277e-07
1.27609e-06
-2.16738e-05
4.28328e-07
1.376e-06
-2.27716e-05
3.11656e-07
1.39482e-06
-2.2847e-05
1.77707e-07
1.35295e-06
-2.23505e-05
2.15762e-08
1.1586e-06
-2.13431e-05
-1.07341e-07
7.76784e-07
-1.98462e-05
-2.46454e-07
2.93632e-07
-1.8127e-05
-3.89035e-07
-1.50661e-07
-1.64786e-05
-5.16499e-07
-4.68428e-07
-1.5023e-05
-6.15099e-07
-6.45574e-07
-1.37402e-05
-6.83162e-07
-7.00179e-07
-1.25794e-05
-7.26389e-07
-6.6121e-07
-1.14933e-05
-7.51409e-07
-5.56016e-07
-1.04518e-05
-7.63604e-07
-4.06346e-07
-9.43762e-06
-7.66779e-07
-2.27488e-07
-8.4393e-06
-7.6353e-07
-2.90144e-08
-7.44734e-06
-7.55629e-07
1.84674e-07
-6.45219e-06
-7.44149e-07
4.12946e-07
-5.44481e-06
-7.29556e-07
6.53853e-07
-4.42038e-06
-7.1204e-07
8.85932e-07
-3.38858e-06
-6.9235e-07
1.10348e-06
-2.37689e-06
-6.71361e-07
1.30736e-06
-1.38436e-06
-6.49665e-07
1.49474e-06
-3.96893e-07
-6.2659e-07
1.64025e-06
6.22062e-07
-6.00023e-07
1.6805e-06
1.75588e-06
-5.68729e-07
1.61007e-06
3.15252e-06
-5.29724e-07
1.40624e-06
4.9462e-06
-4.78987e-07
1.06124e-06
7.30884e-06
-4.09926e-07
6.31087e-07
1.02887e-05
-3.14619e-07
2.60123e-07
1.33503e-05
-1.99787e-07
4.67142e-08
1.50465e-05
-1.00596e-07
-7.82209e-08
1.48019e-05
-4.36994e-08
9.05734e-06
-5.16662e-08
2.93782e-07
-8.61825e-06
1.84479e-07
3.44864e-07
-1.8415e-05
5.68034e-07
4.46733e-08
-2.2038e-05
6.64311e-07
-3.5278e-07
-2.2917e-05
5.42784e-07
-7.53159e-07
-2.28305e-05
3.83899e-07
-1.14997e-06
-2.21782e-05
2.24498e-07
-1.62584e-06
-2.09307e-05
6.34441e-08
-2.10778e-06
-1.92596e-05
-1.04708e-07
-2.48531e-06
-1.74697e-05
-2.79789e-07
-2.71555e-06
-1.58101e-05
-4.38233e-07
-2.80857e-06
-1.43646e-05
-5.65439e-07
-2.78155e-06
-1.31157e-05
-6.51537e-07
-2.65383e-06
-1.19997e-05
-7.07502e-07
-2.45326e-06
-1.0953e-05
-7.40862e-07
-2.20261e-06
-9.9442e-06
-7.58328e-07
-1.92027e-06
-8.95529e-06
-7.64709e-07
-1.61952e-06
-7.97666e-06
-7.63431e-07
-1.30898e-06
-7.00102e-06
-7.56886e-07
-9.93244e-07
-6.02127e-06
-7.46691e-07
-6.74222e-07
-5.03018e-06
-7.33675e-07
-3.53933e-07
-4.02251e-06
-7.1819e-07
-4.05277e-08
-3.00157e-06
-7.00443e-07
2.5911e-07
-1.99487e-06
-6.81681e-07
5.4098e-07
-1.00361e-06
-6.62653e-07
7.95239e-07
-8.76814e-09
-6.42409e-07
9.89808e-07
1.04585e-06
-6.18386e-07
1.0731e-06
2.2616e-06
-5.89035e-07
1.04378e-06
3.73394e-06
-5.52132e-07
8.91282e-07
5.60275e-06
-5.04094e-07
6.21337e-07
8.01815e-06
-4.39416e-07
2.9676e-07
1.09652e-05
-3.52018e-07
4.88949e-08
1.38477e-05
-2.49517e-07
-5.97778e-08
1.53152e-05
-1.601e-07
-1.04847e-07
1.49432e-05
-9.63109e-08
9.02104e-06
-6.85577e-08
-8.24647e-08
-8.83116e-06
2.9509e-07
-6.09419e-07
-1.86363e-05
7.48066e-07
-1.3733e-06
-2.21482e-05
8.73909e-07
-2.14168e-06
-2.29278e-05
7.79031e-07
-2.81525e-06
-2.27806e-05
6.23526e-07
-3.4631e-06
-2.20117e-05
4.81241e-07
-3.99574e-06
-2.07015e-05
3.03298e-07
-4.3041e-06
-1.90439e-05
9.2566e-08
-4.38568e-06
-1.72795e-05
-1.08846e-07
-4.32369e-06
-1.55986e-05
-2.73731e-07
-4.17814e-06
-1.4094e-05
-4.16274e-07
-3.97816e-06
-1.27824e-05
-5.33439e-07
-3.73896e-06
-1.16153e-05
-6.23727e-07
-3.46322e-06
-1.05483e-05
-6.80552e-07
-3.14782e-06
-9.54458e-06
-7.15135e-07
-2.80355e-06
-8.56624e-06
-7.33425e-07
-2.44178e-06
-7.59821e-06
-7.40324e-07
-2.07202e-06
-6.63148e-06
-7.39407e-07
-1.70067e-06
-5.65944e-06
-7.33273e-07
-1.33116e-06
-4.67632e-06
-7.2347e-07
-9.64743e-07
-3.67814e-06
-7.10877e-07
-6.03383e-07
-2.66706e-06
-6.95951e-07
-2.56084e-07
-1.66221e-06
-6.80046e-07
6.68159e-08
-6.6289e-07
-6.63694e-07
3.43548e-07
3.6044e-07
-6.46019e-07
5.45504e-07
1.46809e-06
-6.24279e-07
6.57823e-07
2.74633e-06
-5.97148e-07
6.65015e-07
4.28919e-06
-5.62557e-07
5.5954e-07
6.22516e-06
-5.17063e-07
3.5821e-07
8.67477e-06
-4.55426e-07
1.26268e-07
1.15721e-05
-3.75098e-07
-2.36101e-08
1.42793e-05
-2.81873e-07
-6.68467e-08
1.55573e-05
-1.99009e-07
-7.64253e-08
1.50811e-05
-1.28567e-07
9.01233e-06
-6.77241e-08
-3.44544e-07
-8.84558e-06
3.58368e-07
-1.17944e-06
-1.86296e-05
8.27883e-07
-2.17014e-06
-2.21419e-05
9.8418e-07
-3.13298e-06
-2.29238e-05
9.58688e-07
-3.98792e-06
-2.27871e-05
8.61253e-07
-4.65402e-06
-2.20424e-05
6.96567e-07
-5.05492e-06
-2.08134e-05
5.12543e-07
-5.16149e-06
-1.92552e-05
3.17575e-07
-5.01591e-06
-1.7545e-05
1.19639e-07
-4.7153e-06
-1.58281e-05
-7.14236e-08
-4.36512e-06
-1.42135e-05
-2.30998e-07
-4.03738e-06
-1.27538e-05
-3.56613e-07
-3.74846e-06
-1.14544e-05
-4.50016e-07
-3.46704e-06
-1.02928e-05
-5.37196e-07
-3.17769e-06
-9.2274e-06
-6.06748e-07
-2.87353e-06
-8.22086e-06
-6.49741e-07
-2.54798e-06
-7.24911e-06
-6.74836e-07
-2.20309e-06
-6.28938e-06
-6.87164e-07
-1.84667e-06
-5.32533e-06
-6.90694e-07
-1.48417e-06
-4.35075e-06
-6.88226e-07
-1.11896e-06
-3.36195e-06
-6.81557e-07
-7.5453e-07
-2.35987e-06
-6.71766e-07
-4.00442e-07
-1.35618e-06
-6.60258e-07
-6.86528e-08
-3.47085e-07
-6.47732e-07
2.14366e-07
7.10641e-07
-6.33361e-07
4.21131e-07
1.87603e-06
-6.14855e-07
5.36833e-07
3.22149e-06
-5.91029e-07
5.49191e-07
4.8365e-06
-5.59851e-07
4.57111e-07
6.83503e-06
-5.17992e-07
2.86141e-07
9.30607e-06
-4.60551e-07
9.99691e-08
1.21446e-05
-3.8653e-07
-8.61316e-10
1.46813e-05
-3.01284e-07
-2.21346e-08
1.58012e-05
-2.22825e-07
-3.37393e-08
1.52376e-05
-1.45254e-07
9.03926e-06
-6.06902e-08
-5.3681e-07
-8.72001e-06
4.10495e-07
-1.58814e-06
-1.84799e-05
9.01161e-07
-2.72883e-06
-2.20744e-05
1.07284e-06
-3.76238e-06
-2.29464e-05
1.05591e-06
-4.62228e-06
-2.29119e-05
9.84391e-07
-5.26778e-06
-2.23052e-05
9.08021e-07
-5.63541e-06
-2.12512e-05
8.052e-07
-5.68512e-06
-1.98638e-05
6.57956e-07
-5.45137e-06
-1.82587e-05
4.79627e-07
-5.01701e-06
-1.65466e-05
2.83851e-07
-4.48908e-06
-1.48282e-05
8.6419e-08
-3.95906e-06
-1.31891e-05
-9.50373e-08
-3.48114e-06
-1.16872e-05
-2.45548e-07
-3.08273e-06
-1.03376e-05
-3.53943e-07
-2.75864e-06
-9.12299e-06
-4.28807e-07
-2.46391e-06
-8.01702e-06
-4.98864e-07
-2.17477e-06
-6.98452e-06
-5.53999e-07
-1.88048e-06
-5.99253e-06
-5.91394e-07
-1.57323e-06
-5.02037e-06
-6.12463e-07
-1.25065e-06
-4.05076e-06
-6.22811e-07
-9.17279e-07
-3.06987e-06
-6.25686e-07
-5.78615e-07
-2.0752e-06
-6.23566e-07
-2.46647e-07
-1.0702e-06
-6.18162e-07
5.94427e-08
-4.28687e-08
-6.10532e-07
3.19118e-07
1.05108e-06
-6.0035e-07
5.06699e-07
2.27412e-06
-5.85931e-07
6.05127e-07
3.68934e-06
-5.66572e-07
6.01766e-07
5.37974e-06
-5.40211e-07
4.9842e-07
7.44118e-06
-5.03179e-07
3.23852e-07
9.93297e-06
-4.52724e-07
1.46955e-07
1.27073e-05
-3.86093e-07
6.25598e-08
1.50739e-05
-3.08527e-07
4.01973e-08
1.60568e-05
-2.3363e-07
1.15287e-08
1.54147e-05
-1.49084e-07
9.09477e-06
-4.40009e-08
-7.66423e-07
-8.40645e-06
4.5203e-07
-2.18362e-06
-1.79779e-05
9.14721e-07
-3.56552e-06
-2.17922e-05
1.09943e-06
-4.71596e-06
-2.29218e-05
1.12561e-06
-5.65558e-06
-2.30583e-05
1.08581e-06
-6.30664e-06
-2.26951e-05
1.0407e-06
-6.66167e-06
-2.18841e-05
9.87632e-07
-6.7047e-06
-2.0736e-05
9.14982e-07
-6.434e-06
-1.93239e-05
7.94124e-07
-5.89566e-06
-1.7723e-05
6.37662e-07
-5.17262e-06
-1.60117e-05
4.60022e-07
-4.36933e-06
-1.42659e-05
2.73e-07
-3.58834e-06
-1.25579e-05
8.92262e-08
-2.90086e-06
-1.09483e-05
-7.71589e-08
-2.33356e-06
-9.4756e-06
-2.15119e-07
-1.88966e-06
-8.14843e-06
-3.12869e-07
-1.54549e-06
-6.94804e-06
-3.81006e-07
-1.25807e-06
-5.84374e-06
-4.36523e-07
-9.90495e-07
-4.80462e-06
-4.83613e-07
-7.24783e-07
-3.79917e-06
-5.17583e-07
-4.50828e-07
-2.8062e-06
-5.37895e-07
-1.69328e-07