/*--------------------------------*- C++ -*----------------------------------*\
| =========                 |                                                 |
| \\      /  F ield         | OpenFOAM: The Open Source CFD Toolbox           |
|  \\    /   O peration     | Version:  2.0.x                                 |
|   \\  /    A nd           | Web:      www.OpenFOAM.org                      |
|    \\/     M anipulation  |                                                 |
\*---------------------------------------------------------------------------*/
FoamFile
{
    version     2.0;
    format      ascii;
    class       volScalarField;
    location    "650";
    object      T;
}
// * * * * * * * * * * * * * * * * * * * * * * * * * * * * * * * * * * * * * //

dimensions      [0 0 0 1 0 0 0];

internalField   nonuniform List<scalar> 
78750
(
288.952
289.857
290.124
290.165
290.171
290.211
290.273
290.355
290.433
290.507
290.577
290.637
290.693
290.746
290.798
290.848
290.895
290.941
290.983
291.023
291.06
291.093
291.123
291.15
291.173
291.193
291.207
291.216
291.215
291.215
291.214
291.219
291.319
292.561
300.041
288.701
289.322
289.526
289.539
289.621
289.818
290.023
290.186
290.328
290.456
290.576
290.696
290.812
290.923
291.03
291.13
291.225
291.314
291.396
291.47
291.538
291.602
291.66
291.709
291.748
291.779
291.799
291.805
291.795
291.758
291.689
291.64
291.816
293.723
300.68
288.353
288.691
288.927
289.182
289.494
289.789
290.046
290.264
290.449
290.612
290.758
290.891
291.013
291.126
291.229
291.325
291.414
291.496
291.574
291.646
291.712
291.772
291.827
291.88
291.928
291.968
291.997
292.015
292.015
292.002
292.001
292.102
293.092
295.628
301.499
288.39
288.841
289.272
289.676
289.979
290.211
290.396
290.551
290.688
290.811
290.925
291.029
291.125
291.215
291.3
291.382
291.461
291.537
291.611
291.683
291.753
291.821
291.885
291.944
292
292.05
292.093
292.127
292.151
292.181
292.28
292.729
294.248
297.042
302.408
288.416
288.92
289.362
289.725
290.013
290.237
290.419
290.572
290.707
290.829
290.941
291.047
291.147
291.242
291.333
291.419
291.501
291.58
291.655
291.726
291.795
291.86
291.924
291.986
292.047
292.104
292.158
292.21
292.265
292.348
292.553
293.23
295.042
297.942
303.021
288.448
289.013
289.501
289.889
290.174
290.387
290.557
290.702
290.831
290.951
291.062
291.166
291.264
291.356
291.442
291.524
291.601
291.675
291.745
291.812
291.876
291.938
291.997
292.055
292.114
292.174
292.237
292.307
292.4
292.555
292.891
293.77
295.748
298.698
303.561
288.471
289.066
289.562
289.946
290.228
290.441
290.615
290.764
290.896
291.017
291.128
291.231
291.328
291.42
291.508
291.592
291.671
291.745
291.815
291.881
291.942
292.001
292.058
292.114
292.17
292.23
292.295
292.373
292.488
292.702
293.161
294.224
296.344
299.297
303.938
288.488
289.117
289.642
290.041
290.325
290.538
290.711
290.862
290.997
291.122
291.238
291.347
291.45
291.547
291.637
291.722
291.8
291.873
291.94
292.003
292.06
292.114
292.166
292.215
292.264
292.317
292.376
292.454
292.58
292.824
293.352
294.536
296.767
299.732
304.201
288.509
289.171
289.712
290.113
290.398
290.612
290.788
290.941
291.078
291.204
291.322
291.432
291.536
291.635
291.728
291.814
291.894
291.969
292.04
292.105
292.166
292.222
292.273
292.323
292.372
292.424
292.486
292.571
292.716
292.988
293.568
294.848
297.138
300.086
304.411
288.526
289.217
289.778
290.186
290.471
290.686
290.863
291.019
291.161
291.293
291.417
291.534
291.644
291.745
291.839
291.926
292.007
292.083
292.154
292.22
292.281
292.337
292.389
292.439
292.489
292.542
292.609
292.707
292.866
293.156
293.779
295.124
297.439
300.361
304.571
288.548
289.276
289.855
290.268
290.554
290.771
290.952
291.112
291.259
291.395
291.523
291.643
291.755
291.858
291.954
292.043
292.125
292.2
292.27
292.335
292.395
292.451
292.505
292.557
292.612
292.673
292.749
292.861
293.043
293.373
294.067
295.485
297.78
300.652
304.755
288.568
289.327
289.921
290.335
290.619
290.835
291.019
291.185
291.339
291.486
291.623
291.75
291.869
291.98
292.08
292.17
292.251
292.324
292.391
292.453
292.511
292.565
292.618
292.672
292.729
292.795
292.881
293.006
293.208
293.578
294.339
295.821
298.091
300.907
304.914
288.594
289.394
290.006
290.42
290.702
290.919
291.105
291.274
291.434
291.585
291.728
291.863
291.989
292.103
292.205
292.295
292.374
292.445
292.511
292.572
292.629
292.684
292.739
292.797
292.861
292.937
293.037
293.178
293.399
293.808
294.632
296.158
298.381
301.133
305.059
288.62
289.462
290.091
290.503
290.779
290.992
291.179
291.353
291.519
291.677
291.828
291.968
292.096
292.21
292.311
292.4
292.478
292.548
292.613
292.674
292.733
292.792
292.852
292.916
292.988
293.075
293.188
293.346
293.592
294.041
294.916
296.472
298.636
301.319
305.175
288.654
289.552
290.206
290.62
290.893
291.106
291.296
291.475
291.646
291.808
291.959
292.096
292.217
292.324
292.418
292.501
292.576
292.644
292.708
292.769
292.831
292.894
292.959
293.029
293.11
293.208
293.335
293.512
293.793
294.296
295.226
296.809
298.902
301.498
305.281
288.694
289.659
290.346
290.763
291.035
291.251
291.45
291.639
291.816
291.978
292.118
292.24
292.346
292.439
292.523
292.598
292.667
292.732
292.795
292.858
292.921
292.987
293.057
293.135
293.224
293.332
293.47
293.664
293.974
294.518
295.493
297.093
299.117
301.631
305.36
288.743
289.79
290.521
290.953
291.237
291.47
291.688
291.891
292.069
292.214
292.328
292.421
292.5
292.572
292.64
292.704
292.766
292.826
292.887
292.949
293.014
293.083
293.158
293.242
293.34
293.457
293.61
293.829
294.176
294.764
295.779
297.384
299.329
301.752
305.432
288.796
289.926
290.698
291.148
291.453
291.717
291.964
292.185
292.356
292.47
292.545
292.602
292.653
292.705
292.756
292.809
292.864
292.92
292.978
293.04
293.106
293.177
293.256
293.346
293.451
293.579
293.748
293.995
294.384
295.026
296.089
297.697
299.549
301.867
305.494
288.842
290.035
290.832
291.302
291.638
291.937
292.218
292.457
292.62
292.706
292.751
292.78
292.807
292.84
292.878
292.92
292.967
293.018
293.073
293.133
293.199
293.273
293.355
293.449
293.559
293.697
293.885
294.159
294.587
295.279
296.389
297.994
299.753
301.967
305.548
288.857
290.055
290.844
291.313
291.655
291.967
292.261
292.517
292.711
292.84
292.9
292.927
292.946
292.969
292.998
293.033
293.073
293.119
293.171
293.23
293.296
293.371
293.456
293.554
293.671
293.819
294.022
294.319
294.777
295.506
296.646
298.235
299.911
302.034
305.583
288.854
290.037
290.817
291.286
291.634
291.953
292.25
292.507
292.71
292.857
292.962
293.032
293.068
293.093
293.119
293.15
293.186
293.228
293.277
293.334
293.4
293.476
293.564
293.666
293.79
293.949
294.166
294.481
294.961
295.714
296.865
298.424
300.025
302.073
305.601
288.813
289.925
290.677
291.149
291.506
291.829
292.128
292.398
292.629
292.816
292.957
293.059
293.136
293.193
293.231
293.263
293.298
293.338
293.385
293.441
293.506
293.584
293.674
293.782
293.914
294.086
294.319
294.653
295.153
295.921
297.072
298.588
300.118
302.099
305.611
288.751
289.756
290.455
290.913
291.262
291.576
291.872
292.152
292.413
292.646
292.846
293.008
293.131
293.224
293.298
293.36
293.407
293.448
293.494
293.549
293.614
293.692
293.785
293.898
294.039
294.225
294.477
294.834
295.36
296.149
297.297
298.761
300.222
302.138
305.623
288.694
289.598
290.229
290.65
290.973
291.263
291.541
291.813
292.08
292.337
292.579
292.799
292.992
293.153
293.281
293.381
293.464
293.536
293.598
293.657
293.722
293.801
293.896
294.013
294.163
294.36
294.63
295.012
295.566
296.38
297.527
298.937
300.336
302.195
305.64
288.655
289.489
290.064
290.44
290.723
290.973
291.214
291.454
291.694
291.936
292.18
292.423
292.661
292.885
293.088
293.266
293.415
293.536
293.638
293.728
293.813
293.901
293.999
294.12
294.275
294.483
294.768
295.171
295.752
296.588
297.735
299.099
300.447
302.258
305.657
288.634
289.443
290.008
290.378
290.635
290.842
291.029
291.207
291.387
291.572
291.766
291.973
292.199
292.443
292.682
292.918
293.145
293.353
293.537
293.694
293.83
293.953
294.074
294.206
294.368
294.583
294.876
295.291
295.888
296.739
297.883
299.214
300.526
302.304
305.666
288.619
289.421
290.003
290.376
290.633
290.839
291.024
291.195
291.357
291.51
291.656
291.794
291.926
292.064
292.241
292.449
292.691
292.944
293.195
293.439
293.667
293.876
294.063
294.236
294.423
294.655
294.958
295.382
295.989
296.848
297.988
299.294
300.581
302.335
305.667
288.613
289.421
290.008
290.392
290.654
290.862
291.047
291.218
291.38
291.532
291.674
291.806
291.928
292.043
292.157
292.273
292.396
292.561
292.775
293.032
293.307
293.599
293.886
294.146
294.393
294.659
294.99
295.432
296.049
296.914
298.051
299.339
300.609
302.347
305.666
288.629
289.482
290.123
290.539
290.815
291.032
291.225
291.407
291.578
291.732
291.862
291.967
292.054
292.132
292.21
292.295
292.39
292.499
292.626
292.779
292.994
293.279
293.608
293.94
294.274
294.617
294.986
295.451
296.087
296.962
298.098
299.372
300.63
302.36
305.67
288.675
289.622
290.34
290.801
291.109
291.356
291.582
291.798
291.995
292.155
292.266
292.332
292.369
292.392
292.415
292.446
292.492
292.557
292.645
292.762
292.917
293.123
293.399
293.729
294.102
294.509
294.945
295.451
296.113
297.004
298.143
299.405
300.654
302.382
305.683
288.719
289.739
290.505
291.001
291.348
291.64
291.914
292.174
292.404
292.582
292.688
292.727
292.73
292.718
292.704
292.696
292.702
292.727
292.774
292.848
292.96
293.121
293.343
293.63
293.983
294.404
294.887
295.447
296.143
297.054
298.197
299.444
300.683
302.414
305.706
288.749
289.792
290.542
291.025
291.375
291.677
291.961
292.23
292.478
292.689
292.853
292.949
292.976
292.972
292.957
292.943
292.938
292.948
292.977
293.027
293.107
293.226
293.399
293.639
293.955
294.358
294.852
295.444
296.172
297.106
298.255
299.488
300.721
302.46
305.737
288.755
289.792
290.541
291.023
291.372
291.675
291.958
292.229
292.477
292.689
292.857
292.983
293.076
293.12
293.133
293.138
293.143
293.158
293.186
293.232
293.299
293.397
293.535
293.731
294.003
294.377
294.862
295.461
296.214
297.168
298.321
299.535
300.759
302.507
305.767
288.737
289.735
290.454
290.928
291.279
291.586
291.874
292.144
292.392
292.615
292.807
292.963
293.081
293.172
293.241
293.281
293.306
293.332
293.368
293.416
293.482
293.57
293.691
293.859
294.097
294.439
294.908
295.517
296.29
297.261
298.414
299.602
300.814
302.569
305.796
288.678
289.576
290.237
290.693
291.038
291.34
291.62
291.886
292.139
292.382
292.611
292.82
293.001
293.148
293.26
293.348
293.418
293.467
293.512
293.567
293.634
293.719
293.832
293.988
294.208
294.527
294.981
295.592
296.38
297.368
298.518
299.677
300.874
302.633
305.822
288.628
289.44
290.041
290.459
290.777
291.055
291.318
291.572
291.822
292.067
292.309
292.546
292.776
292.99
293.178
293.329
293.446
293.54
293.616
293.681
293.754
293.839
293.948
294.097
294.306
294.611
295.057
295.672
296.473
297.473
298.616
299.749
300.932
302.692
305.844
288.603
289.381
289.957
290.35
290.64
290.892
291.13
291.363
291.593
291.821
292.047
292.273
292.501
292.732
292.966
293.188
293.382
293.534
293.654
293.752
293.84
293.932
294.041
294.182
294.376
294.665
295.103
295.727
296.549
297.564
298.705
299.817
300.987
302.743
305.858
288.585
289.346
289.927
290.326
290.613
290.854
291.078
291.294
291.505
291.714
291.921
292.13
292.34
292.554
292.774
293.005
293.238
293.457
293.637
293.777
293.89
293.996
294.11
294.247
294.428
294.698
295.116
295.73
296.56
297.589
298.735
299.841
301.007
302.764
305.863
288.567
289.314
289.895
290.302
290.596
290.841
291.066
291.282
291.494
291.704
291.913
292.124
292.337
292.552
292.769
292.985
293.202
293.416
293.615
293.786
293.925
294.048
294.171
294.31
294.487
294.747
295.149
295.749
296.58
297.622
298.777
299.881
301.044
302.798
305.879
288.567
289.319
289.904
290.309
290.603
290.85
291.079
291.302
291.523
291.746
291.973
292.21
292.456
292.706
292.942
293.153
293.344
293.525
293.698
293.856
293.995
294.12
294.243
294.381
294.561
294.824
295.223
295.821
296.657
297.706
298.853
299.94
301.101
302.867
305.916
288.597
289.397
289.998
290.4
290.689
290.937
291.173
291.408
291.648
291.898
292.166
292.457
292.769
293.078
293.345
293.543
293.686
293.804
293.916
294.025
294.132
294.238
294.351
294.487
294.667
294.927
295.32
295.91
296.74
297.782
298.916
299.991
301.15
302.924
305.952
288.652
289.521
290.138
290.535
290.822
291.072
291.315
291.562
291.822
292.104
292.417
292.767
293.144
293.503
293.784
293.957
294.051
294.109
294.171
294.24
294.317
294.405
294.512
294.647
294.829
295.088
295.472
296.048
296.865
297.898
299.014
300.062
301.215
303.007
306.006
288.69
289.596
290.215
290.608
290.892
291.139
291.382
291.629
291.891
292.177
292.494
292.842
293.205
293.554
293.851
294.074
294.228
294.333
294.399
294.456
294.52
294.601
294.706
294.849
295.043
295.314
295.704
296.273
297.068
298.067
299.143
300.159
301.309
303.123
306.063
288.698
289.605
290.219
290.609
290.892
291.136
291.367
291.601
291.843
292.1
292.374
292.671
292.99
293.323
293.651
293.948
294.192
294.377
294.515
294.621
294.711
294.8
294.91
295.061
295.274
295.569
295.985
296.569
297.354
298.318
299.343
300.312
301.433
303.233
306.102
288.677
289.543
290.14
290.522
290.794
291.019
291.223
291.416
291.604
291.792
291.985
292.192
292.421
292.684
292.995
293.351
293.701
294.041
294.342
294.585
294.772
294.92
295.061
295.225
295.443
295.746
296.171
296.761
297.539
298.476
299.458
300.392
301.493
303.267
306.095
288.624
289.432
290.034
290.447
290.733
290.961
291.164
291.353
291.533
291.705
291.871
292.03
292.185
292.339
292.497
292.681
292.947
293.283
293.675
294.074
294.451
294.778
295.046
295.279
295.528
295.839
296.259
296.838
297.605
298.527
299.492
300.407
301.487
303.252
306.072
288.613
289.417
290.027
290.443
290.73
290.959
291.162
291.351
291.53
291.702
291.867
292.026
292.18
292.331
292.481
292.631
292.785
292.955
293.175
293.498
293.898
294.342
294.78
295.163
295.502
295.855
296.3
296.886
297.644
298.549
299.498
300.406
301.468
303.196
306.036
288.602
289.403
290.021
290.444
290.739
290.973
291.179
291.369
291.549
291.72
291.885
292.042
292.193
292.34
292.486
292.633
292.783
292.939
293.11
293.303
293.571
293.946
294.397
294.874
295.344
295.801
296.281
296.872
297.627
298.532
299.484
300.395
301.445
303.141
306.002
288.6
289.403
290.038
290.486
290.801
291.051
291.27
291.472
291.662
291.842
292.012
292.17
292.316
292.452
292.582
292.708
292.837
292.973
293.121
293.291
293.493
293.749
294.112
294.577
295.096
295.63
296.181
296.806
297.573
298.484
299.446
300.367
301.416
303.103
305.986
288.598
289.413
290.071
290.535
290.864
291.13
291.369
291.593
291.806
292.006
292.193
292.366
292.522
292.662
292.787
292.9
293.005
293.11
293.221
293.349
293.506
293.71
293.987
294.375
294.869
295.446
296.061
296.727
297.506
298.417
299.387
300.323
301.376
303.048
305.961
288.612
289.453
290.122
290.589
290.923
291.199
291.451
291.692
291.923
292.145
292.356
292.553
292.732
292.892
293.031
293.15
293.251
293.34
293.425
293.515
293.624
293.771
293.982
294.283
294.702
295.262
295.919
296.631
297.434
298.37
299.364
300.317
301.376
303.048
305.963
288.634
289.514
290.2
290.669
291.007
291.291
291.556
291.81
292.056
292.293
292.524
292.744
292.949
293.134
293.294
293.429
293.538
293.627
293.702
293.773
293.853
293.959
294.11
294.337
294.682
295.189
295.846
296.594
297.441
298.386
299.379
300.329
301.385
303.055
305.975
288.657
289.563
290.252
290.713
291.046
291.331
291.603
291.873
292.144
292.412
292.673
292.925
293.163
293.378
293.558
293.712
293.835
293.931
294.007
294.073
294.14
294.222
294.339
294.513
294.782
295.222
295.859
296.623
297.496
298.463
299.461
300.405
301.462
303.141
306.018
288.677
289.599
290.277
290.724
291.05
291.334
291.606
291.877
292.149
292.421
292.693
292.964
293.233
293.496
293.741
293.938
294.085
294.198
294.287
294.36
294.428
294.503
294.602
294.748
294.975
295.352
295.939
296.716
297.607
298.576
299.552
300.47
301.523
303.215
306.064
288.683
289.608
290.284
290.726
291.048
291.329
291.601
291.872
292.143
292.414
292.686
292.958
293.229
293.497
293.754
293.989
294.198
294.36
294.485
294.583
294.667
294.749
294.842
294.969
295.16
295.481
296.012
296.751
297.641
298.617
299.588
300.503
301.557
303.251
306.073
288.682
289.603
290.269
290.7
291.01
291.277
291.533
291.788
292.046
292.308
292.575
292.847
293.124
293.408
293.691
293.962
294.203
294.411
294.581
294.719
294.834
294.936
295.037
295.149
295.298
295.544
295.995
296.694
297.593
298.594
299.592
300.516
301.568
303.263
306.07
288.678
289.598
290.266
290.699
291.007
291.271
291.521
291.769
292.019
292.273
292.531
292.795
293.067
293.347
293.634
293.919
294.186
294.427
294.631
294.802
294.947
295.078
295.204
295.334
295.477
295.675
296.023
296.681
297.582
298.598
299.602
300.521
301.574
303.283
306.077
288.688
289.623
290.293
290.722
291.026
291.287
291.535
291.781
292.03
292.281
292.537
292.799
293.07
293.353
293.645
293.942
294.23
294.488
294.707
294.891
295.053
295.207
295.364
295.534
295.727
295.96
296.301
296.865
297.741
298.776
299.752
300.631
301.686
303.421
306.151
288.706
289.667
290.349
290.777
291.076
291.331
291.572
291.809
292.046
292.284
292.524
292.772
293.031
293.31
293.613
293.928
294.236
294.521
294.77
294.984
295.17
295.348
295.543
295.781
296.076
296.429
296.869
297.48
298.309
299.244
300.122
300.953
301.997
303.715
306.283
288.707
289.672
290.365
290.801
291.103
291.357
291.593
291.825
292.055
292.285
292.512
292.74
292.975
293.221
293.482
293.78
294.112
294.443
294.741
294.993
295.208
295.411
295.635
295.922
296.304
296.78
297.343
298.013
298.805
299.638
300.417
301.19
302.205
303.874
306.334
288.725
289.73
290.454
290.904
291.214
291.473
291.712
291.939
292.155
292.363
292.568
292.776
292.994
293.227
293.477
293.749
294.042
294.359
294.674
294.959
295.204
295.428
295.663
295.954
296.346
296.863
297.487
298.196
298.969
299.748
300.487
301.24
302.238
303.885
306.333
288.751
289.799
290.556
291.031
291.362
291.641
291.899
292.138
292.353
292.545
292.723
292.899
293.083
293.284
293.507
293.759
294.039
294.339
294.647
294.94
295.202
295.439
295.676
295.95
296.315
296.814
297.44
298.153
298.916
299.683
300.419
301.171
302.158
303.797
306.286
288.754
289.814
290.59
291.087
291.443
291.752
292.041
292.308
292.539
292.731
292.895
293.05
293.208
293.382
293.577
293.8
294.054
294.335
294.63
294.92
295.191
295.438
295.677
295.937
296.272
296.741
297.37
298.111
298.887
299.646
300.379
301.13
302.108
303.736
306.257
288.772
289.865
290.657
291.161
291.532
291.867
292.188
292.484
292.736
292.933
293.091
293.231
293.372
293.525
293.697
293.895
294.12
294.371
294.641
294.915
295.18
295.43
295.667
295.91
296.198
296.598
297.175
297.927
298.77
299.601
300.365
301.119
302.093
303.718
306.249
288.788
289.895
290.681
291.182
291.561
291.918
292.279
292.623
292.904
293.118
293.28
293.416
293.549
293.691
293.853
294.039
294.252
294.486
294.734
294.983
295.224
295.457
295.681
295.907
296.154
296.461
296.898
297.527
298.324
299.184
300.008
300.802
301.781
303.429
306.129
288.789
289.896
290.682
291.182
291.561
291.918
292.282
292.642
292.973
293.229
293.414
293.561
293.696
293.837
293.996
294.18
294.392
294.628
294.878
295.126
295.363
295.587
295.794
295.989
296.191
296.445
296.787
297.274
297.955
298.792
299.684
300.555
301.572
303.231
306.043
288.79
289.893
290.669
291.164
291.545
291.906
292.272
292.637
292.979
293.277
293.518
293.691
293.836
293.98
294.138
294.323
294.543
294.796
295.067
295.338
295.598
295.836
296.043
296.222
296.385
296.559
296.813
297.252
297.887
298.721
299.645
300.533
301.554
303.219
306.04
288.778
289.853
290.6
291.086
291.461
291.818
292.183
292.561
292.934
293.271
293.546
293.765
293.931
294.079
294.233
294.41
294.624
294.884
295.187
295.514
295.841
296.142
296.396
296.603
296.775
296.935
297.123
297.411
297.935
298.734
299.652
300.535
301.559
303.231
306.065
288.767
289.816
290.532
290.989
291.346
291.687
292.043
292.422
292.82
293.205
293.538
293.799
293.995
294.149
294.295
294.456
294.65
294.896
295.202
295.564
295.961
296.354
296.703
296.999
297.249
297.478
297.723
298.045
298.527
299.192
299.966
300.763
301.761
303.449
306.165
288.768
289.815
290.53
290.978
291.321
291.644
291.977
292.33
292.708
293.102
293.479
293.798
294.043
294.229
294.376
294.518
294.68
294.884
295.152
295.503
295.934
296.386
296.819
297.22
297.591
297.939
298.295
298.701
299.206
299.82
300.49
301.194
302.121
303.725
306.263
288.765
289.804
290.516
290.965
291.3
291.606
291.911
292.23
292.574
292.949
293.344
293.722
294.034
294.268
294.445
294.584
294.719
294.876
295.077
295.357
295.749
296.246
296.767
297.235
297.679
298.121
298.583
299.075
299.617
300.209
300.829
301.487
302.366
303.889
306.313
288.749
289.764
290.463
290.907
291.234
291.526
291.81
292.1
292.409
292.748
293.126
293.532
293.923
294.245
294.481
294.657
294.793
294.92
295.064
295.253
295.526
295.918
296.429
297.019
297.595
298.117
298.613
299.145
299.712
300.305
300.912
301.56
302.421
303.91
306.313
288.736
289.733
290.423
290.858
291.173
291.449
291.712
291.977
292.252
292.551
292.886
293.268
293.687
294.099
294.442
294.691
294.872
295.01
295.135
295.274
295.456
295.713
296.081
296.577
297.17
297.813
298.455
299.073
299.684
300.295
300.909
301.56
302.422
303.898
306.288
288.726
289.71
290.401
290.841
291.152
291.41
291.647
291.882
292.123
292.38
292.664
292.992
293.377
293.812
294.251
294.625
294.899
295.094
295.242
295.375
295.52
295.709
295.979
296.355
296.855
297.458
298.12
298.797
299.472
300.134
300.786
301.47
302.353
303.836
306.26
288.72
289.702
290.398
290.841
291.151
291.409
291.643
291.865
292.082
292.298
292.529
292.791
293.108
293.491
293.938
294.406
294.815
295.117
295.327
295.489
295.637
295.8
296.017
296.335
296.772
297.327
297.974
298.669
299.371
300.059
300.732
301.427
302.318
303.812
306.257
288.715
289.697
290.398
290.842
291.153
291.41
291.643
291.865
292.08
292.292
292.506
292.724
292.959
293.247
293.623
294.081
294.578
295.015
295.333
295.559
295.738
295.908
296.111
296.391
296.793
297.326
297.961
298.655
299.364
300.056
300.731
301.427
302.32
303.815
306.26
288.714
289.702
290.417
290.872
291.185
291.44
291.668
291.883
292.092
292.298
292.507
292.723
292.948
293.193
293.469
293.827
294.292
294.794
295.229
295.55
295.786
295.981
296.185
296.448
296.821
297.331
297.961
298.655
299.363
300.056
300.731
301.426
302.319
303.815
306.259
288.724
289.74
290.483
290.954
291.275
291.533
291.762
291.974
292.175
292.371
292.565
292.763
292.972
293.2
293.459
293.764
294.132
294.586
295.062
295.472
295.78
296.016
296.226
296.465
296.795
297.265
297.876
298.576
299.295
299.994
300.671
301.37
302.267
303.766
306.234
288.737
289.782
290.547
291.033
291.367
291.637
291.878
292.099
292.308
292.508
292.701
292.892
293.086
293.289
293.514
293.778
294.099
294.489
294.935
295.376
295.752
296.038
296.268
296.492
296.771
297.16
297.7
298.367
299.097
299.827
300.533
301.25
302.157
303.673
306.197
288.753
289.835
290.622
291.116
291.457
291.736
291.985
292.216
292.436
292.647
292.853
293.056
293.256
293.457
293.665
293.892
294.158
294.484
294.874
295.295
295.7
296.043
296.31
296.54
296.788
297.121
297.581
298.189
298.902
299.645
300.37
301.1
302.016
303.554
306.151
288.785
289.924
290.735
291.237
291.583
291.868
292.124
292.362
292.589
292.811
293.03
293.249
293.465
293.68
293.893
294.112
294.348
294.621
294.944
295.316
295.712
296.073
296.366
296.611
296.85
297.139
297.555
298.111
298.788
299.532
300.277
301.019
301.938
303.485
306.121
288.816
290
290.821
291.329
291.684
291.981
292.249
292.499
292.739
292.974
293.211
293.451
293.694
293.936
294.17
294.398
294.628
294.866
295.134
295.452
295.811
296.162
296.462
296.715
296.95
297.216
297.577
298.107
298.778
299.527
300.277
301.017
301.933
303.482
306.122
288.849
290.066
290.887
291.386
291.743
292.046
292.322
292.578
292.825
293.07
293.323
293.593
293.879
294.173
294.454
294.722
294.979
295.232
295.495
295.781
296.088
296.391
296.662
296.898
297.119
297.361
297.678
298.136
298.783
299.53
300.279
301.019
301.935
303.492
306.138
288.874
290.117
290.928
291.418
291.773
292.074
292.346
292.598
292.84
293.081
293.333
293.606
293.909
294.243
294.602
294.951
295.269
295.56
295.847
296.134
296.417
296.687
296.932
297.152
297.362
297.592
297.889
298.312
298.894
299.604
300.338
301.07
301.992
303.564
306.181
288.882
290.132
290.947
291.437
291.79
292.091
292.362
292.612
292.85
293.083
293.322
293.586
293.888
294.234
294.617
295.009
295.383
295.735
296.072
296.391
296.688
296.961
297.208
297.433
297.651
297.888
298.188
298.601
299.16
299.826
300.518
301.223
302.134
303.697
306.236
288.892
290.155
290.971
291.464
291.822
292.126
292.397
292.642
292.87
293.091
293.316
293.552
293.821
294.149
294.54
294.967
295.388
295.795
296.184
296.545
296.877
297.179
297.456
297.713
297.963
298.231
298.553
298.97
299.502
300.116
300.751
301.419
302.31
303.847
306.298
288.901
290.172
290.99
291.487
291.849
292.157
292.43
292.676
292.901
293.115
293.327
293.549
293.801
294.099
294.461
294.88
295.322
295.765
296.191
296.588
296.958
297.302
297.626
297.936
298.241
298.56
298.921
299.351
299.858
300.415
300.992
301.619
302.478
303.972
306.341
288.902
290.174
290.992
291.488
291.852
292.163
292.44
292.688
292.914
293.126
293.332
293.542
293.765
294.028
294.346
294.729
295.163
295.625
296.093
296.539
296.947
297.32
297.681
298.038
298.4
298.774
299.179
299.626
300.118
300.64
301.185
301.789
302.624
304.075
306.375
288.903
290.179
291.001
291.501
291.867
292.18
292.457
292.706
292.931
293.14
293.341
293.542
293.753
293.979
294.248
294.573
294.958
295.391
295.858
296.332
296.792
297.236
297.652
298.042
298.434
298.844
299.28
299.746
300.24
300.756
301.295
301.893
302.715
304.133
306.39
288.903
290.182
291.011
291.517
291.889
292.206
292.488
292.738
292.963
293.17
293.365
293.557
293.755
293.967
294.197
294.467
294.784
295.154
295.577
296.034
296.503
296.978
297.454
297.928
298.389
298.838
299.287
299.764
300.266
300.786
301.326
301.922
302.737
304.139
306.387
288.901
290.181
291.013
291.522
291.897
292.22
292.506
292.76
292.987
293.194
293.388
293.577
293.767
293.967
294.182
294.414
294.675
294.975
295.324
295.72
296.154
296.62
297.112
297.622
298.142
298.667
299.195
299.721
300.249
300.78
301.323
301.921
302.735
304.13
306.377
288.899
290.181
291.017
291.53
291.909
292.235
292.524
292.779
293.006
293.212
293.405
293.591
293.78
293.975
294.181
294.401
294.634
294.886
295.167
295.486
295.85
296.263
296.725
297.23
297.767
298.327
298.899
299.475
300.052
300.629
301.214
301.843
302.67
304.065
306.347
288.9
290.188
291.031
291.55
291.935
292.266
292.558
292.815
293.042
293.246
293.436
293.62
293.805
293.998
294.201
294.415
294.638
294.871
295.117
295.38
295.675
296.015
296.413
296.873
297.391
297.955
298.55
299.165
299.789
300.412
301.037
301.697
302.546
303.965
306.306
288.9
290.192
291.038
291.561
291.952
292.29
292.587
292.846
293.074
293.278
293.467
293.649
293.833
294.024
294.228
294.443
294.667
294.895
295.126
295.366
295.622
295.906
296.237
296.632
297.103
297.645
298.246
298.89
299.556
300.222
300.885
301.574
302.448
303.894
306.279
288.903
290.203
291.053
291.579
291.975
292.319
292.621
292.882
293.109
293.311
293.498
293.678
293.86
294.052
294.257
294.476
294.705
294.939
295.171
295.401
295.637
295.893
296.183
296.524
296.937
297.437
298.022
298.673
299.36
300.052
300.738
301.448
302.349
303.833
306.261
288.906
290.214
291.067
291.599
292.002
292.354
292.66
292.922
293.149
293.348
293.532
293.709
293.889
294.079
294.286
294.51
294.747
294.99
295.231
295.467
295.699
295.934
296.194
296.506
296.884
297.341
297.894
298.529
299.213
299.909
300.601
301.317
302.228
303.741
306.23
288.909
290.224
291.08
291.616
292.028
292.387
292.699
292.963
293.188
293.385
293.565
293.739
293.916
294.104
294.312
294.542
294.79
295.045
295.301
295.549
295.788
296.021
296.263
296.536
296.882
297.325
297.86
298.479
299.157
299.853
300.539
301.249
302.158
303.688
306.208
288.913
290.237
291.094
291.636
292.057
292.426
292.744
293.009
293.233
293.426
293.601
293.77
293.942
294.128
294.336
294.572
294.831
295.105
295.381
295.648
295.9
296.14
296.377
296.633
296.937
297.334
297.858
298.478
299.156
299.85
300.536
301.242
302.153
303.687
306.207
288.917
290.247
291.104
291.652
292.083
292.463
292.788
293.057
293.279
293.468
293.638
293.8
293.967
294.147
294.354
294.593
294.865
295.162
295.467
295.762
296.038
296.294
296.539
296.791
297.076
297.433
297.894
298.483
299.158
299.852
300.537
301.242
302.153
303.688
306.211
288.921
290.254
291.112
291.665
292.107
292.499
292.832
293.105
293.326
293.511
293.675
293.83
293.988
294.161
294.361
294.599
294.88
295.2
295.54
295.873
296.183
296.468
296.735
297
297.289
297.634
298.072
298.617
299.245
299.904
300.563
301.256
302.168
303.715
306.23
288.922
290.255
291.114
291.673
292.126
292.531
292.876
293.154
293.375
293.555
293.712
293.859
294.006
294.166
294.353
294.581
294.862
295.198
295.569
295.945
296.301
296.629
296.936
297.236
297.551
297.91
298.343
298.865
299.456
300.073
300.695
301.36
302.249
303.776
306.254
288.921
290.253
291.113
291.676
292.138
292.556
292.915
293.201
293.424
293.602
293.752
293.889
294.023
294.167
294.332
294.536
294.796
295.127
295.526
295.943
296.336
296.708
297.06
297.405
297.761
298.151
298.599
299.112
299.673
300.255
300.849
301.493
302.364
303.862
306.285
288.918
290.244
291.109
291.676
292.146
292.578
292.952
293.25
293.478
293.655
293.8
293.928
294.05
294.177
294.319
294.489
294.707
295
295.391
295.846
296.303
296.713
297.097
297.476
297.867
298.286
298.749
299.258
299.804
300.369
300.951
301.588
302.449
303.924
306.305
288.911
290.23
291.102
291.675
292.151
292.596
292.987
293.299
293.535
293.714
293.856
293.977
294.089
294.201
294.321
294.456
294.622
294.851
295.175
295.601
296.096
296.602
297.065
297.476
297.881
298.311
298.78
299.289
299.833
300.397
300.977
301.61
302.464
303.928
306.304
288.904
290.218
291.101
291.679
292.161
292.62
293.028
293.355
293.601
293.784
293.925
294.042
294.147
294.248
294.351
294.462
294.59
294.752
294.975
295.294
295.727
296.249
296.798
297.33
297.822
298.296
298.774
299.285
299.83
300.394
300.975
301.606
302.455
303.904
306.284
288.897
290.207
291.103
291.692
292.181
292.654
293.079
293.421
293.678
293.866
294.009
294.125
294.226
294.32
294.412