/*--------------------------------*- C++ -*----------------------------------*\
| =========                 |                                                 |
| \\      /  F ield         | OpenFOAM: The Open Source CFD Toolbox           |
|  \\    /   O peration     | Version:  2.0.x                                 |
|   \\  /    A nd           | Web:      www.OpenFOAM.org                      |
|    \\/     M anipulation  |                                                 |
\*---------------------------------------------------------------------------*/
FoamFile
{
    version     2.0;
    format      ascii;
    class       volVectorField;
    location    "650";
    object      U;
}
// * * * * * * * * * * * * * * * * * * * * * * * * * * * * * * * * * * * * * //

dimensions      [0 1 -1 0 0 0 0];

internalField   nonuniform List<vector> 
78750
(
(-0.00535066 0.0256775 0.0442678)
(-0.0162178 0.0191617 0.06272)
(-0.028608 0.000573715 0.0617979)
(-0.0374269 -0.0171578 0.0595419)
(-0.0393473 -0.0300595 0.0576339)
(-0.0386616 -0.0404648 0.0577142)
(-0.0335695 -0.0486121 0.0568378)
(-0.0271861 -0.0545883 0.0558991)
(-0.0192585 -0.0588486 0.0550628)
(-0.0104682 -0.0616796 0.0543718)
(-0.00123983 -0.0633169 0.0538284)
(0.0083099 -0.0641383 0.0533189)
(0.017697 -0.0644314 0.052713)
(0.0268959 -0.0640351 0.0520565)
(0.0356562 -0.063124 0.0515279)
(0.0440421 -0.0616857 0.0511419)
(0.0519156 -0.0597566 0.0508688)
(0.0591714 -0.0573313 0.0507111)
(0.0657994 -0.0546428 0.0505408)
(0.0714975 -0.0515115 0.0504289)
(0.0768573 -0.0472232 0.050752)
(0.080307 -0.0456084 0.0496204)
(0.0838103 -0.0405459 0.048721)
(0.085394 -0.0370759 0.0486749)
(0.0864149 -0.032973 0.0487121)
(0.086247 -0.0277808 0.0488315)
(0.0847179 -0.0221299 0.0490431)
(0.0819046 -0.0160309 0.0493685)
(0.0772619 -0.00924362 0.0498786)
(0.0707777 -0.00174466 0.0504761)
(0.0624228 0.00738085 0.0508728)
(0.0524148 0.0157536 0.0521887)
(0.0394623 0.0238586 0.0548942)
(0.0235023 0.0343046 0.0573398)
(0.00823037 0.0382111 0.0413228)
(0.000409597 0.0444583 0.0286353)
(-0.000599708 0.0603092 0.0444072)
(-0.00491237 0.0451219 0.0467044)
(-0.00598211 0.0100733 0.0423364)
(-0.00627605 -0.0432958 0.0372449)
(-0.00246683 -0.0813781 0.0323734)
(0.00085175 -0.101432 0.0320741)
(0.00561061 -0.115632 0.0305138)
(0.0107549 -0.125055 0.0289425)
(0.0160256 -0.130634 0.0276851)
(0.0209189 -0.133216 0.0268065)
(0.0264718 -0.133253 0.0262685)
(0.0304064 -0.132108 0.0260883)
(0.0352301 -0.129015 0.0260126)
(0.0392229 -0.124829 0.0261092)
(0.0429445 -0.11978 0.0263319)
(0.0463211 -0.113995 0.0266609)
(0.0493246 -0.107561 0.027084)
(0.0519305 -0.100546 0.0275818)
(0.0541737 -0.0930684 0.0280907)
(0.0557904 -0.0848462 0.0287712)
(0.0574143 -0.0736371 0.0311639)
(0.0584219 -0.0623663 0.0334924)
(0.0578235 -0.0529313 0.0343439)
(0.0574045 -0.0434442 0.0342333)
(0.0558641 -0.0331071 0.0340782)
(0.0539784 -0.0217256 0.0339771)
(0.0517873 -0.00903422 0.0339852)
(0.0473418 0.0111407 0.0343935)
(0.0437784 0.022107 0.0347053)
(0.0381171 0.0386137 0.0359052)
(0.0313835 0.0600481 0.0372667)
(0.0222817 0.0856672 0.0399629)
(0.0115364 0.106564 0.0410167)
(0.00324954 0.0976118 0.0310052)
(0.000449713 0.0106461 0.0206144)
(0.00397659 0.0146584 0.0374588)
(0.0095922 -0.0139848 0.0399109)
(0.0163542 -0.0548146 0.0367755)
(0.0224586 -0.0948837 0.0328189)
(0.0260489 -0.124051 0.0292605)
(0.0286006 -0.143803 0.0257933)
(0.0304553 -0.155239 0.0233708)
(0.031643 -0.160862 0.0218587)
(0.0324799 -0.162833 0.0209423)
(0.0329243 -0.162437 0.0205869)
(0.0332278 -0.159946 0.0203606)
(0.0335154 -0.156165 0.020319)
(0.0337311 -0.151588 0.0204049)
(0.0339975 -0.146324 0.0205957)
(0.0342718 -0.140468 0.0208807)
(0.0345355 -0.134072 0.0212496)
(0.0347682 -0.12715 0.0216993)
(0.0349486 -0.119697 0.0222315)
(0.0350337 -0.111749 0.0228207)
(0.0349687 -0.103425 0.0233924)
(0.0348938 -0.0946553 0.0239211)
(0.0345754 -0.0845724 0.0247805)
(0.03483 -0.0716033 0.0267568)
(0.0340652 -0.0582784 0.0287643)
(0.0332164 -0.0454361 0.0301874)
(0.0315485 -0.0339592 0.0302731)
(0.0299685 -0.0196358 0.0306412)
(0.0274776 0.00151213 0.0311407)
(0.0253171 0.015145 0.0312684)
(0.0218579 0.0375734 0.0316202)
(0.0175554 0.0679097 0.0325339)
(0.011607 0.101758 0.0343466)
(0.00553809 0.120913 0.0334453)
(0.00163025 0.105163 0.0244783)
(-0.000409202 -0.0105235 0.0156996)
(0.00180381 -0.0461816 0.0252897)
(0.00608991 -0.089552 0.0227739)
(0.0104434 -0.127138 0.0175021)
(0.0139267 -0.15002 0.013607)
(0.0161946 -0.162493 0.0111171)
(0.0175868 -0.167798 0.0100925)
(0.0185349 -0.169845 0.00978952)
(0.0194697 -0.170377 0.00983828)
(0.0202794 -0.169996 0.00990719)
(0.0211788 -0.168664 0.00992832)
(0.0220323 -0.166632 0.00997234)
(0.0229099 -0.163879 0.0100612)
(0.0237849 -0.160433 0.0101945)
(0.02461 -0.156257 0.0103877)
(0.025363 -0.151219 0.0106939)
(0.0260203 -0.145376 0.0111168)
(0.0265446 -0.138729 0.0116747)
(0.0269036 -0.131236 0.012407)
(0.0270756 -0.122872 0.0133481)
(0.0270398 -0.113645 0.0145089)
(0.0267566 -0.103639 0.0158512)
(0.0262405 -0.0930337 0.0172922)
(0.0255762 -0.0817412 0.0187743)
(0.0248985 -0.0690667 0.0205763)
(0.0240151 -0.054877 0.0227758)
(0.0229838 -0.0396997 0.0250658)
(0.0215014 -0.0231819 0.0266679)
(0.0195027 -0.000530134 0.0283525)
(0.017795 0.0155013 0.0291493)
(0.015064 0.041599 0.0298332)
(0.0123268 0.0764106 0.0302553)
(0.00757882 0.115081 0.0297757)
(0.00324056 0.131255 0.0271285)
(0.000684666 0.107127 0.0180867)
(3.465e-05 -0.0151966 0.00924586)
(0.00210304 -0.0615278 0.0122091)
(0.00509944 -0.103896 0.0102155)
(0.00802151 -0.134316 0.00850145)
(0.010416 -0.154464 0.00765931)
(0.0125154 -0.167232 0.007348)
(0.014511 -0.175883 0.00709667)
(0.0163858 -0.181801 0.00672617)
(0.0179967 -0.185339 0.00629225)
(0.0196017 -0.186824 0.00590136)
(0.0209124 -0.186573 0.00563002)
(0.0222331 -0.184728 0.0053615)
(0.023315 -0.181478 0.00520094)
(0.0242319 -0.176988 0.00518834)
(0.0249802 -0.171423 0.00531652)
(0.0255618 -0.164995 0.00557115)
(0.0259714 -0.15767 0.00601828)
(0.0261911 -0.14946 0.00671151)
(0.0262088 -0.140495 0.00764511)
(0.0260317 -0.130891 0.00880106)
(0.0256761 -0.120707 0.0101684)
(0.0251548 -0.109926 0.011741)
(0.024493 -0.0984727 0.0134811)
(0.0235183 -0.0863438 0.0150891)
(0.0224398 -0.0734104 0.0170472)
(0.0211775 -0.0595998 0.019274)
(0.0197616 -0.0450006 0.0215496)
(0.0182952 -0.0291781 0.0235418)
(0.0165268 -0.00785236 0.0257703)
(0.014837 0.00993962 0.0271292)
(0.0126886 0.0352896 0.0283137)
(0.0101262 0.0766282 0.0288077)
(0.00632632 0.118657 0.0275609)
(0.00278395 0.134326 0.0243005)
(0.000606799 0.106356 0.0160574)
(0.000145355 -0.030623 0.00657022)
(0.00207991 -0.0920774 0.00819881)
(0.00459822 -0.138595 0.00620774)
(0.00721925 -0.167442 0.00413518)
(0.00959873 -0.18312 0.00263346)
(0.011683 -0.191853 0.00150202)
(0.0134807 -0.196351 0.000680397)
(0.0151309 -0.197956 0.00015046)
(0.0164466 -0.197645 -0.000155796)
(0.0176966 -0.195789 -0.000440499)
(0.0187048 -0.192802 -0.000665291)
(0.0195659 -0.188918 -0.000825573)
(0.0203161 -0.184246 -0.000931005)
(0.0209635 -0.178926 -0.00100166)
(0.0214837 -0.173223 -0.00111903)
(0.0218491 -0.16671 -0.00113532)
(0.022038 -0.15927 -0.000893942)
(0.0220722 -0.15095 -0.000342846)
(0.021978 -0.141927 0.000470928)
(0.0217676 -0.132322 0.0015159)
(0.0214435 -0.122191 0.00278092)
(0.0210013 -0.11152 0.00428024)
(0.0203959 -0.100215 0.00609666)
(0.019766 -0.0880242 0.00861327)
(0.0188622 -0.0750104 0.0112891)
(0.0178201 -0.0611878 0.0140848)
(0.0166443 -0.0467573 0.0168351)
(0.0154254 -0.0312802 0.0193845)
(0.014143 -0.0103104 0.0223626)
(0.0127374 0.00890989 0.02449)
(0.0107421 0.0347566 0.0262983)
(0.00847052 0.0791152 0.0273132)
(0.00521526 0.124031 0.025847)
(0.0022465 0.139372 0.0222736)
(0.000408472 0.106642 0.0139021)
(0.000128051 -0.0359512 0.00314507)
(0.00151098 -0.0994387 0.00213262)
(0.00341469 -0.143521 -0.000124728)
(0.00544955 -0.170405 -0.00154876)
(0.00743225 -0.185602 -0.00219734)
(0.00931263 -0.194131 -0.0024558)
(0.0110788 -0.199011 -0.00259305)
(0.0127214 -0.20162 -0.00273755)
(0.0143463 -0.202525 -0.00291526)
(0.0157372 -0.201992 -0.00313143)
(0.0171581 -0.199999 -0.00344041)
(0.0183812 -0.19678 -0.0037455)
(0.0194782 -0.192386 -0.00401413)
(0.0204076 -0.186722 -0.00416362)
(0.0211685 -0.179395 -0.00401543)
(0.0216728 -0.171079 -0.00384234)
(0.022028 -0.162181 -0.0030937)
(0.0221732 -0.152978 -0.00233801)
(0.0221542 -0.1434 -0.00149054)
(0.0219722 -0.133445 -0.000517825)
(0.0216289 -0.123097 0.000612517)
(0.0211229 -0.1123 0.00193763)
(0.0204485 -0.100979 0.0035002)
(0.0196128 -0.0890251 0.00535003)
(0.0186418 -0.0763346 0.00751394)
(0.0175481 -0.0629377 0.00995699)
(0.0163214 -0.0492299 0.012503)
(0.0150264 -0.0354923 0.0149225)
(0.013757 -0.0182299 0.0177935)
(0.0119566 0.00663062 0.0214117)
(0.010052 0.0315261 0.0239957)
(0.00761403 0.079172 0.0256416)
(0.00473373 0.125978 0.0245012)
(0.00211249 0.141471 0.0206284)
(0.000406015 0.106446 0.0120441)
(0.000155192 -0.0438562 0.00172704)
(0.00160677 -0.11562 0.000339962)
(0.00364575 -0.162846 -0.00160895)
(0.00581671 -0.189533 -0.00300252)
(0.00786307 -0.203168 -0.00394589)
(0.00978809 -0.210026 -0.00465709)
(0.0115837 -0.213173 -0.0052628)
(0.0133515 -0.213865 -0.00580229)
(0.0148166 -0.212814 -0.00624468)
(0.0162877 -0.209994 -0.00675985)
(0.0175054 -0.205895 -0.00724781)
(0.018599 -0.200642 -0.00771302)
(0.0195092 -0.194428 -0.00816325)
(0.0201743 -0.187451 -0.00858276)
(0.0206824 -0.17962 -0.00875547)
(0.0211295 -0.171026 -0.00842997)
(0.021419 -0.161981 -0.00842853)
(0.0216263 -0.152377 -0.00833322)
(0.0216826 -0.142285 -0.00812671)
(0.0215497 -0.131811 -0.00775568)
(0.0212271 -0.121028 -0.00718375)
(0.0207285 -0.109856 -0.00635794)
(0.0200761 -0.0982478 -0.00522353)
(0.019293 -0.0862074 -0.0037393)
(0.0184032 -0.0736972 -0.00188351)
(0.0174197 -0.0607082 0.000332984)
(0.0163204 -0.0473432 0.0028169)
(0.0150567 -0.0333683 0.00547408)
(0.0133824 -0.0155694 0.00899871)
(0.0113562 0.00962073 0.0138395)
(0.00958338 0.0347256 0.0175016)
(0.00712913 0.0814255 0.0225076)
(0.0043575 0.129094 0.0226086)
(0.00189977 0.144603 0.0193179)
(0.000347148 0.107201 0.0113518)
(0.000150152 -0.0481749 -0.000249898)
(0.00141467 -0.121782 -0.00293836)
(0.0032163 -0.167656 -0.00494915)
(0.005134 -0.192835 -0.00602535)
(0.00699852 -0.205776 -0.00658399)
(0.00879512 -0.212415 -0.00695109)
(0.0105234 -0.215564 -0.00727912)
(0.0122311 -0.216354 -0.00761368)
(0.0137218 -0.215405 -0.00797518)
(0.0152075 -0.212781 -0.00846172)
(0.0164839 -0.208923 -0.00904975)
(0.0175775 -0.203653 -0.0096548)
(0.0184897 -0.196764 -0.0100105)
(0.0193149 -0.188538 -0.00996576)
(0.0199357 -0.179924 -0.0100444)
(0.0204287 -0.170942 -0.0102726)
(0.0207962 -0.161325 -0.0105695)
(0.0210007 -0.150916 -0.0107693)
(0.020998 -0.139795 -0.0108177)
(0.0207781 -0.128241 -0.0106875)
(0.0203426 -0.116565 -0.0103651)
(0.0197149 -0.104915 -0.00983583)
(0.0189327 -0.0932897 -0.00907844)
(0.0180362 -0.081539 -0.00805446)
(0.0170687 -0.0694668 -0.00672797)
(0.0160586 -0.0570221 -0.00510132)
(0.0149747 -0.0439446 -0.00314098)
(0.0137311 -0.0290941 -0.000606216)
(0.0119821 -0.00925957 0.00338985)
(0.0104486 0.0106016 0.00754408)
(0.00879399 0.0372703 0.0127197)
(0.00633694 0.0849444 0.0187614)
(0.00382108 0.132396 0.0204485)
(0.00163539 0.147483 0.0175401)
(0.00026101 0.107896 0.00948067)
(0.000153116 -0.053384 -0.000999229)
(0.00143698 -0.132548 -0.00349989)
(0.00327479 -0.180626 -0.00510557)
(0.00519658 -0.205861 -0.0061182)
(0.00704355 -0.218021 -0.0068589)
(0.00878803 -0.223704 -0.00750469)
(0.0105484 -0.225795 -0.00814069)
(0.0120792 -0.225423 -0.00871705)
(0.0136344 -0.222973 -0.00941044)
(0.0149805 -0.218671 -0.0100948)
(0.0161035 -0.212461 -0.0106918)
(0.0171004 -0.204908 -0.0110995)
(0.0178792 -0.196878 -0.0116085)
(0.0184949 -0.188442 -0.0124029)
(0.0190338 -0.179263 -0.0132256)
(0.0194006 -0.169332 -0.0139756)
(0.0195903 -0.158619 -0.0145611)
(0.019615 -0.147089 -0.0149335)
(0.0194804 -0.134874 -0.0150622)
(0.0191856 -0.12232 -0.0149499)
(0.0187404 -0.109811 -0.0146234)
(0.0181541 -0.0974952 -0.014099)
(0.0174331 -0.0854602 -0.0133955)
(0.0165885 -0.0737167 -0.0125307)
(0.0156524 -0.0621283 -0.0115155)
(0.0146499 -0.0502858 -0.0103041)
(0.0135664 -0.0373573 -0.00872863)
(0.0123641 -0.0222166 -0.0065406)
(0.0109533 -0.0035281 -0.0032952)
(0.00975255 0.014289 0.000139394)
(0.0079998 0.0440355 0.00608529)
(0.00562304 0.0901731 0.0132067)
(0.00326989 0.13554 0.0167798)
(0.00129146 0.149555 0.0151736)
(0.00015859 0.10792 0.00839504)
(0.000171079 -0.0569877 -0.00198344)
(0.001409 -0.138243 -0.00484934)
(0.00312133 -0.185475 -0.00635511)
(0.00486219 -0.209409 -0.00723649)
(0.00653436 -0.220775 -0.00786244)
(0.00812778 -0.22597 -0.00840967)
(0.00972266 -0.22765 -0.00896746)
(0.0111364 -0.226956 -0.0095147)
(0.0124472 -0.224248 -0.0102406)
(0.013526 -0.219335 -0.011062)
(0.0145425 -0.212605 -0.011852)
(0.0153625 -0.204879 -0.0127338)
(0.0160855 -0.196151 -0.0136882)
(0.0166485 -0.186424 -0.0145693)
(0.0169724 -0.17587 -0.0153158)
(0.0171019 -0.164717 -0.0159133)
(0.0170736 -0.153092 -0.0163536)
(0.0169276 -0.140913 -0.0166109)
(0.0166839 -0.12816 -0.0166581)
(0.0163354 -0.11517 -0.0165035)
(0.0158887 -0.102421 -0.0161853)
(0.0153605 -0.0899973 -0.0157125)
(0.0147542 -0.0778944 -0.0150936)
(0.0140646 -0.0660786 -0.014342)
(0.0132914 -0.054464 -0.0134778)
(0.0124392 -0.0427682 -0.0124828)
(0.0115221 -0.0303075 -0.0112397)
(0.0105422 -0.0158515 -0.00947869)
(0.00944166 0.00169486 -0.00688304)
(0.00840916 0.0194677 -0.00391799)
(0.00681751 0.0514706 0.00153631)
(0.00479079 0.097275 0.00865312)
(0.00266036 0.13982 0.0131767)
(0.000935748 0.152109 0.0122267)
(1.15602e-05 0.107375 0.00631912)
(0.000151193 -0.0613053 -0.00212697)
(0.00131555 -0.146639 -0.00430968)
(0.00292625 -0.195029 -0.00533446)
(0.00453008 -0.218669 -0.00619134)
(0.00606124 -0.229327 -0.00701544)
(0.00752226 -0.233706 -0.00783196)
(0.00898345 -0.23437 -0.00868144)
(0.0102879 -0.232315 -0.00948248)
(0.0114615 -0.227153 -0.010456)
(0.0125474 -0.220427 -0.0114816)
(0.0133801 -0.212674 -0.0125929)
(0.0140666 -0.203678 -0.0137772)
(0.0145485 -0.19339 -0.0149104)
(0.0147877 -0.18214 -0.015959)
(0.01485 -0.170309 -0.0168924)
(0.0147741 -0.158179 -0.0176819)
(0.0145996 -0.145886 -0.0183046)
(0.0143643 -0.133346 -0.0187319)
(0.0140967 -0.120296 -0.0189176)
(0.0137916 -0.106979 -0.0188612)
(0.0134304 -0.0940614 -0.0186333)
(0.0130156 -0.0816262 -0.0182541)
(0.0125498 -0.0696351 -0.017737)
(0.0120296 -0.0580192 -0.0170983)
(0.0114494 -0.0466575 -0.0163614)
(0.0107956 -0.0352625 -0.0155213)
(0.010051 -0.0232097 -0.0144975)
(0.00919288 -0.00913303 -0.0129874)
(0.0083318 0.00788315 -0.0106686)
(0.00742332 0.0261411 -0.00787184)
(0.00587732 0.0585636 -0.00243037)
(0.00406273 0.103667 0.00477648)
(0.00222372 0.143474 0.00968168)
(0.000731023 0.154009 0.00944097)
(-4.6425e-05 0.106541 0.00458787)
(0.000132477 -0.0642284 -0.00231392)
(0.00122839 -0.151405 -0.00405882)
(0.0027156 -0.199116 -0.00477222)
(0.00413328 -0.221557 -0.0055785)
(0.00546728 -0.231378 -0.00644611)
(0.00673673 -0.235137 -0.007334)
(0.00799819 -0.235244 -0.0082628)
(0.00894882 -0.232838 -0.0091884)
(0.0100191 -0.227224 -0.0105306)
(0.010759 -0.220064 -0.0119358)
(0.0114607 -0.210856 -0.0133738)
(0.0118919 -0.199987 -0.0147835)
(0.0120879 -0.188005 -0.0161025)
(0.0121127 -0.175423 -0.0172625)
(0.0120135 -0.162653 -0.0182184)
(0.0118367 -0.149949 -0.0189545)
(0.0116154 -0.137383 -0.019476)
(0.011374 -0.124844 -0.0197892)
(0.0111368 -0.112073 -0.0198832)
(0.0109164 -0.0989318 -0.0197471)
(0.0106785 -0.0861235 -0.0194758)
(0.0104081 -0.0738181 -0.0191132)
(0.0101022 -0.0619631 -0.0186759)
(0.00975341 -0.0504561 -0.0181747)
(0.0093522 -0.0391209 -0.0176168)
(0.00888337 -0.027599 -0.0169762)
(0.0083199 -0.015318 -0.0161753)
(0.00765285 -0.00147776 -0.0149869)
(0.00706026 0.0128256 -0.0135054)
(0.00623775 0.0346584 -0.0106941)
(0.00493315 0.067523 -0.00566477)
(0.00333882 0.111212 0.00113953)
(0.00179523 0.14773 0.00601717)
(0.000537392 0.156272 0.00641901)
(-9.92791e-05 0.105816 0.00281696)
(8.01406e-05 -0.067785 -0.0018849)
(0.00111393 -0.158365 -0.00233287)
(0.00251365 -0.20662 -0.00241047)
(0.00378974 -0.22832 -0.00322055)
(0.00496817 -0.237223 -0.00432843)
(0.0061349 -0.239978 -0.00554526)
(0.00716977 -0.238775 -0.0067631)
(0.00821116 -0.233838 -0.00840429)
(0.00893591 -0.227153 -0.0100611)
(0.00953903 -0.218071 -0.0118431)
(0.00986337 -0.206953 -0.013682)
(0.00996125 -0.194373 -0.0154633)
(0.00990314 -0.181033 -0.0170671)
(0.00974887 -0.167526 -0.0184161)
(0.00955216 -0.154222 -0.0194824)
(0.00934648 -0.141277 -0.0202736)
(0.00914816 -0.12867 -0.020814)
(0.00896441 -0.116243 -0.0211256)
(0.00880045 -0.103729 -0.021211)
(0.00867301 -0.0909053 -0.0210589)
(0.00855134 -0.0782062 -0.0207408)
(0.00840083 -0.0660329 -0.0203404)
(0.00822026 -0.0543446 -0.0198827)
(0.00800386 -0.0430005 -0.0193812)
(0.00774909 -0.0318026 -0.018846)
(0.00745131 -0.0204336 -0.0182651)
(0.00708733 -0.00842963 -0.0175941)
(0.0066985 0.00499063 -0.0166138)
(0.00621885 0.0194826 -0.0152991)
(0.00537127 0.0421234 -0.0126893)
(0.00422461 0.0755756 -0.00804677)
(0.0028095 0.1182 -0.00173586)
(0.00150417 0.15173 0.00285245)
(0.000438809 0.158383 0.0038013)
(-0.000110085 0.105264 0.00148637)
(3.91607e-05 -0.0704901 -0.00136644)
(0.00112217 -0.163322 -0.000432697)
(0.00252366 -0.211021 0.000112689)
(0.00369794 -0.231349 -0.000661196)
(0.004756 -0.239196 -0.00191236)
(0.00576722 -0.241141 -0.00332071)
(0.00656351 -0.239424 -0.00467124)
(0.00732347 -0.233744 -0.00692223)
(0.00785848 -0.225126 -0.00928004)
(0.00812703 -0.213862 -0.0117722)
(0.00813092 -0.200704 -0.0142264)
(0.00796712 -0.186608 -0.0164255)
(0.00772479 -0.172366 -0.0182351)
(0.00747409 -0.158464 -0.0196232)
(0.00725244 -0.145105 -0.020625)
(0.00707267 -0.132295 -0.0213016)
(0.00693309 -0.119917 -0.0217133)
(0.00682746 -0.107776 -0.0219056)
(0.00675275 -0.0956401 -0.0219018)
(0.00671174 -0.0832943 -0.0217065)
(0.00669874 -0.070773 -0.0213407)
(0.0066649 -0.0587206 -0.0209297)
(0.00661147 -0.0471486 -0.0205015)
(0.00652501 -0.0359393 -0.0200707)
(0.00640358 -0.0249101 -0.0196474)
(0.00623439 -0.0137188 -0.0192177)
(0.00601166 -0.00168062 -0.0186222)
(0.0057559 0.0107862 -0.0178701)
(0.00531942 0.0276434 -0.016544)
(0.00455128 0.0512228 -0.0141059)
(0.00352472 0.0848002 -0.00989358)
(0.00228119 0.125904 -0.00425174)
(0.00120468 0.156197 -0.000105727)
(0.000324789 0.16085 0.00117441)
(-0.000141487 0.105062 -0.000112717)
(2.64083e-07 -0.0746819 -0.000257383)
(0.00119787 -0.171693 0.00286075)
(0.00259538 -0.219432 0.00429404)
(0.00365729 -0.23822 0.00356535)
(0.00460309 -0.244483 0.0020617)
(0.00547225 -0.244594 0.000133901)
(0.00619618 -0.240248 -0.00236461)
(0.00664417 -0.232635 -0.00506162)
(0.00680211 -0.221421 -0.00829753)
(0.00664483 -0.207638 -0.01172)
(0.00628372 -0.192644 -0.0149014)
(0.0058571 -0.177557 -0.0175463)
(0.00547106 -0.162999 -0.0195666)
(0.00517529 -0.149185 -0.0210171)
(0.00497821 -0.136093 -0.0220056)
(0.00486705 -0.123596 -0.0226367)
(0.00482226 -0.111524 -0.0229913)
(0.00482554 -0.0996853 -0.0231236)
(0.00486425 -0.0878692 -0.0230641)
(0.00492619 -0.0758661 -0.0228197)
(0.00502583 -0.0636269 -0.0223949)
(0.00511682 -0.0517789 -0.0219341)
(0.00519861 -0.0403457 -0.0214705)
(0.00524759 -0.0292049 -0.021022)
(0.00525272 -0.0181942 -0.0206006)
(0.00519984 -0.00704146 -0.0202005)
(0.00512844 0.00489475 -0.0196591)
(0.00494638 0.0176489 -0.0189364)
(0.00451539 0.0352457 -0.0176208)
(0.00383413 0.059693 -0.0152476)
(0.00292551 0.0934099 -0.0113013)
(0.0018599 0.133049 -0.00616922)
(0.000984083 0.160516 -0.00236794)
(0.000265283 0.163417 -0.000732903)
(-0.000138442 0.105145 -0.00070079)
(9.94887e-06 -0.0793863 0.00122619)
(0.00131617 -0.179953 0.00671699)
(0.00255845 -0.226467 0.00896688)
(0.00333721 -0.243167 0.0083611)
(0.00403097 -0.247812 0.00681251)
(0.00440005 -0.246615 0.00496561)
(0.00485905 -0.240124 0.00140008)
(0.00488424 -0.229256 -0.002634)
(0.00458569 -0.21479 -0.00721871)
(0.00401006 -0.198483 -0.0118394)
(0.0033691 -0.182189 -0.015828)
(0.00282144 -0.166888 -0.0188636)
(0.00243359 -0.152747 -0.0209838)
(0.00220764 -0.13958 -0.0223783)
(0.00211706 -0.127138 -0.0232439)
(0.00212985 -0.115205 -0.0237342)
(0.00221639 -0.103595 -0.0239541)
(0.00235373 -0.0921393 -0.023971)
(0.00252677 -0.080659 -0.0238211)
(0.00272359 -0.0689908 -0.0235154)
(0.00297019 -0.0571017 -0.0230595)
(0.00321036 -0.0454834 -0.0225914)
(0.00343911 -0.0341581 -0.0221381)
(0.00363833 -0.023027 -0.0217132)
(0.00380085 -0.0119821 -0.0213253)
(0.00391383 -0.000885791 -0.0209795)
(0.0039818 0.0106542 -0.0205507)
(0.00390808 0.0250627 -0.0198392)
(0.00357893 0.0436735 -0.0185771)
(0.00300314 0.0688735 -0.0163404)
(0.00219998 0.102595 -0.0126816)
(0.0012804 0.140528 -0.00796752)
(0.000600531 0.165074 -0.00451061)
(7.8654e-05 0.166133 -0.00271207)
(-0.000188328 0.105155 -0.00190059)
(4.08354e-05 -0.0859675 0.00350353)
(0.00120809 -0.191019 0.0117909)
(0.00194719 -0.235736 0.0148402)
(0.00225991 -0.24967 0.014357)
(0.00213073 -0.251957 0.0127735)
(0.00238103 -0.247431 0.00909468)
(0.00208592 -0.238248 0.00548168)
(0.00166291 -0.223589 0.000384762)
(0.00092991 -0.205678 -0.00565786)
(0.00013468 -0.187629 -0.0114966)
(-0.000517997 -0.171186 -0.0162386)
(-0.000935087 -0.156549 -0.0196547)
(-0.00112592 -0.143283 -0.0219459)
(-0.0011352 -0.130921 -0.0233984)
(-0.0010119 -0.119135 -0.0242596)
(-0.000798193 -0.107714 -0.0247105)
(-0.000525035 -0.0965092 -0.024874)
(-0.000212737 -0.0853924 -0.0248285)
(0.000127611 -0.074239 -0.0246188)
(0.000490837 -0.0629388 -0.0242674)
(0.000883149 -0.051453 -0.0237902)
(0.00128657 -0.039952 -0.0232496)
(0.0016561 -0.0286921 -0.0227451)
(0.00200693 -0.0176175 -0.0222888)
(0.00233927 -0.00658911 -0.0218849)
(0.00262398 0.00461469 -0.0215284)
(0.00279153 0.0166433 -0.0210683)
(0.00277855 0.0317502 -0.0203182)
(0.00256519 0.0513433 -0.019043)
(0.00212053 0.0774974 -0.0168755)
(0.00146165 0.111304 -0.0134424)
(0.0007214 0.147442 -0.00925889)
(0.000253032 0.16902 -0.00618014)
(-7.2996e-05 0.168338 -0.00424856)
(-0.000204256 0.104999 -0.00235432)
(0.000130023 -0.0919847 0.00608618)
(0.000657984 -0.19972 0.0167914)
(0.000361038 -0.241458 0.0203799)
(-0.000245966 -0.252501 0.0198655)
(-0.000934481 -0.252427 0.017812)
(-0.00157121 -0.246424 0.014901)
(-0.00227145 -0.233778 0.0106833)
(-0.00317689 -0.215668 0.00500282)
(-0.00389535 -0.195783 -0.00195991)
(-0.00435981 -0.177479 -0.00883278)
(-0.00458736 -0.16176 -0.014645)
(-0.00465244 -0.148009 -0.0187291)
(-0.00451809 -0.135582 -0.0215063)
(-0.0042394 -0.1239 -0.0232787)
(-0.00386073 -0.11263 -0.0243395)
(-0.00341585 -0.101594 -0.024905)
(-0.00293136 -0.0906888 -0.0251309)
(-0.00242484 -0.0798308 -0.0251216)
(-0.00190672 -0.0689326 -0.0249427)
(-0.00138145 -0.0579031 -0.0246311)
(-0.000858118 -0.046674 -0.0242059)
(-0.000315622 -0.0352869 -0.0236836)
(0.000186855 -0.0240953 -0.0232068)
(0.000675548 -0.0131334 -0.0227965)
(0.00111995 -0.0022258 -0.0224597)
(0.00150272 0.00922201 -0.0220656)
(0.00174427 0.0224294 -0.0215109)
(0.00178825 0.0384573 -0.0206613)
(0.00164067 0.0589575 -0.0193054)
(0.00129414 0.0858546 -0.017137)
(0.000794115 0.119493 -0.0138808)
(0.000282376 0.153667 -0.0101135)
(1.53732e-05 0.172414 -0.00737622)
(-0.000150402 0.170092 -0.00539109)
(-0.000192736 0.104539 -0.00283105)
(6.87144e-05 -0.0963132 0.00861735)
(-0.000391168 -0.204658 0.0206197)
(-0.00164633 -0.243873 0.0244002)
(-0.002977 -0.253007 0.0243034)
(-0.00395517 -0.251748 0.0227716)
(-0.00530809 -0.243853 0.0213613)
(-0.00625246 -0.229391 0.0172764)
(-0.00685829 -0.210858 0.0105851)
(-0.00725776 -0.191254 0.00332333)
(-0.00736086 -0.172885 -0.00298625)
(-0.00714292 -0.156626 -0.00890476)
(-0.00678449 -0.14275 -0.0140863)
(-0.00641432 -0.130474 -0.0182856)
(-0.00598538 -0.118983 -0.0210279)
(-0.00549114 -0.107915 -0.0228075)
(-0.00493966 -0.0970491 -0.0238731)
(-0.00435107 -0.0862752 -0.0244384)
(-0.00374278 -0.0755153 -0.0246563)
(-0.00312776 -0.064698 -0.0246312)
(-0.00251364 -0.0537533 -0.0244303)
(-0.00191105 -0.0426319 -0.0240949)
(-0.00129092 -0.0313652 -0.0236529)
(-0.000708031 -0.0202095 -0.0232465)
(-0.000141748 -0.00915501 -0.022894)
(0.000351768 0.00204774 -0.022596)
(0.00075787 0.0140621 -0.0221986)
(0.0010201 0.0279374 -0.0216126)
(0.00111375 0.0447668 -0.0207129)
(0.00101898 0.066093 -0.0193005)
(0.000762008 0.0935207 -0.0170876)
(0.000398956 0.12673 -0.0140482)
(9.76581e-05 0.158953 -0.0106131)
(-2.20847e-05 0.175337 -0.00812726)
(-8.26306e-05 0.171675 -0.00609046)
(-9.85943e-05 0.104277 -0.00294132)
(4.02272e-05 -0.0968066 0.00979465)
(-0.000975884 -0.204644 0.0226031)
(-0.00283676 -0.243868 0.0276494)
(-0.00436976 -0.252731 0.0288068)
(-0.00599117 -0.251364 0.0283571)
(-0.00716846 -0.242805 0.0252919)
(-0.00814322 -0.228704 0.0212761)
(-0.00862067 -0.210917 0.0161915)
(-0.00857884 -0.19176 0.010151)
(-0.008085 -0.173053 0.00347249)
(-0.00758456 -0.156008 -0.00247402)
(-0.00703676 -0.140827 -0.00739065)
(-0.00648154 -0.127242 -0.0111927)
(-0.0059762 -0.115076 -0.0151193)
(-0.00551271 -0.103888 -0.018438)
(-0.00502001 -0.0930636 -0.0205796)
(-0.00449799 -0.0823734 -0.021935)
(-0.00394043 -0.0716941 -0.0227212)
(-0.00335767 -0.0609506 -0.0231026)
(-0.00276083 -0.050084 -0.0232009)
(-0.00216425 -0.0390535 -0.023098)
(-0.00154353 -0.0278741 -0.0228479)
(-0.000951177 -0.0167116 -0.0225951)
(-0.000372132 -0.00555802 -0.0223643)
(0.000136169 0.00599851 -0.0221524)
(0.000553388 0.0186435 -0.0218116)
(0.000820737 0.0332638 -0.0212617)
(0.000918326 0.0509004 -0.0203827)
(0.000828488 0.07296 -0.0189908)
(0.000595438 0.100715 -0.0168315)
(0.00029484 0.133361 -0.0139749)
(9.63162e-05 0.16367 -0.0108326)
(3.54579e-05 0.178089 -0.00853299)
(3.33433e-05 0.173323 -0.00642531)
(-2.38984e-05 0.104348 -0.00283855)
(0.000134929 -0.0965187 0.0109517)
(-0.00136992 -0.204345 0.0241563)
(-0.00359013 -0.243571 0.0293701)
(-0.00547407 -0.252772 0.0309402)
(-0.00693416 -0.251724 0.0309999)
(-0.00826681 -0.244368 0.0307722)
(-0.00913855 -0.231808 0.02962)
(-0.00952347 -0.215512 0.0269909)
(-0.00938366 -0.197074 0.0225838)
(-0.00882099 -0.177933 0.0166016)
(-0.00796908 -0.15933 0.00963698)
(-0.00702683 -0.14222 0.00262603)
(-0.00620245 -0.127013 -0.00350554)
(-0.00548161 -0.113436 -0.00798263)
(-0.00483923 -0.101005 -0.0111217)
(-0.00431731 -0.089497 -0.0143539)
(-0.00384606 -0.0786252 -0.0170397)
(-0.00336798 -0.0680106 -0.0189544)
(-0.00286871 -0.0573627 -0.0201096)
(-0.00234514 -0.0465978 -0.0207646)
(-0.00180579 -0.0356739 -0.0210701)
(-0.00123277 -0.024596 -0.0211311)
(-0.00067727 -0.0134548 -0.0211084)
(-0.00013774 -0.00217203 -0.0210493)
(0.000333505 0.00980788 -0.0209658)
(0.000717981 0.0231228 -0.0207423)
(0.000959707 0.038519 -0.0203074)
(0.00103197 0.0569933 -0.019539)
(0.000931278 0.0797771 -0.0182359)
(0.000669521 0.10778 -0.0163226)
(0.000360727 0.139784 -0.0137252)
(0.000172381 0.168226 -0.0108647)
(0.000113111 0.180992 -0.00870163)
(0.00012159 0.175272 -0.00649864)
(4.75042e-05 0.104863 -0.00250572)
(8.47521e-05 -0.0942233 0.0112933)
(-0.00201499 -0.201297 0.0235227)
(-0.00486616 -0.242177 0.0289151)
(-0.00680482 -0.25295 0.0311144)
(-0.00864828 -0.253843 0.0323698)
(-0.00995291 -0.248353 0.033949)
(-0.010829 -0.2381 0.0347833)
(-0.0111917 -0.224124 0.0343544)
(-0.0110311 -0.207371 0.03239)
(-0.010372 -0.188844 0.028754)
(-0.00932493 -0.16954 0.0235319)
(-0.00803323 -0.150428 0.0170662)
(-0.00666055 -0.132401 0.00997913)
(-0.00537432 -0.116076 0.00310422)
(-0.00434324 -0.10158 -0.00284022)
(-0.00352312 -0.088572 -0.00707763)
(-0.00285181 -0.0765471 -0.0100992)
(-0.00230903 -0.0651443 -0.0126745)
(-0.001857 -0.0542043 -0.0149781)
(-0.00142732 -0.0434379 -0.0166907)
(-0.000981642 -0.0325766 -0.0177346)
(-0.00050702 -0.021554 -0.0183328)
(-4.53005e-05 -0.0103546 -0.0186879)
(0.000396067 0.00121396 -0.0188975)
(0.000770408 0.013589 -0.019013)
(0.0010726 0.0275345 -0.0189686)
(0.00125019 0.0437346 -0.0187151)
(0.00127593 0.0630932 -0.0181514)
(0.00114287 0.0866204 -0.0170936)
(0.000847294 0.11493 -0.0154867)
(0.000489739 0.146235 -0.0132407)
(0.000270403 0.172751 -0.0107211)
(0.000196613 0.184029 -0.00870231)
(0.000168687 0.177423 -0.00641619)
(5.18212e-05 0.105639 -0.00210876)
(-0.000117194 -0.0894685 0.00966421)
(-0.00249471 -0.19305 0.018659)
(-0.00536919 -0.236947 0.0233047)
(-0.00778111 -0.251789 0.0266828)
(-0.00947518 -0.254484 0.0286807)
(-0.0111326 -0.252472 0.0296472)
(-0.0121554 -0.245297 0.032363)
(-0.0126218 -0.234335 0.0339132)
(-0.0125586 -0.220239 0.0345432)
(-0.0119882 -0.203653 0.0341283)
(-0.010943 -0.185305 0.0324059)
(-0.00951942 -0.165917 0.0291953)
(-0.00785438 -0.14621 0.0245025)
(-0.00610582 -0.126932 0.0185796)
(-0.00441987 -0.108816 0.0119719)
(-0.00295521 -0.0923998 0.00541947)
(-0.00182748 -0.0777932 -0.000381516)
(-0.00100526 -0.0646993 -0.00477233)
(-0.00040478 -0.0525874 -0.00786379)
(6.79245e-05 -0.0410287 -0.0102369)
(0.000413082 -0.0298229 -0.0123415)
(0.000722446 -0.0186772 -0.0138853)
(0.00101157 -0.00727712 -0.0148937)
(0.00129252 0.00466087 -0.0155608)
(0.00152492 0.0174251 -0.0160048)
(0.00168724 0.0319794 -0.0162436)
(0.00174633 0.0488991 -0.0162544)
(0.00169536 0.0690451 -0.0159514)
(0.00149917 0.0933083 -0.0152977)
(0.00116939 0.121941 -0.0141288)
(0.000771437 0.152535 -0.0123457)
(0.000508274 0.177215 -0.0102371)
(0.000395523 0.187216 -0.00839567)
(0.000276642 0.179782 -0.00608024)
(5.26222e-05 0.106628 -0.00159183)
(-0.000345107 -0.0831616 0.00831661)
(-0.00254263 -0.182529 0.0145973)
(-0.00504395 -0.228875 0.0170873)
(-0.00725864 -0.247602 0.0192435)
(-0.00906532 -0.253544 0.0209694)
(-0.0104104 -0.25371 0.0226573)
(-0.0117941 -0.250322 0.0244477)
(-0.0123746 -0.243053 0.0262429)
(-0.0124944 -0.232423 0.0281746)
(-0.0120809 -0.218909 0.0300378)
(-0.0112113 -0.202963 0.0315118)
(-0.00993183 -0.185093 0.0322012)
(-0.00831187 -0.165819 0.0317339)
(-0.00643966 -0.145695 0.0298213)
(-0.00446758 -0.125293 0.0263239)
(-0.00254863 -0.105302 0.0213444)
(-0.000800156 -0.0864623 0.0153344)
(0.000646758 -0.069337 0.00902136)
(0.00171291 -0.0541147 0.00318821)
(0.00236204 -0.0405368 -0.00146919)
(0.00274193 -0.0279944 -0.0047423)