/*--------------------------------*- C++ -*----------------------------------*\
| =========                 |                                                 |
| \\      /  F ield         | OpenFOAM: The Open Source CFD Toolbox           |
|  \\    /   O peration     | Version:  2.0.x                                 |
|   \\  /    A nd           | Web:      www.OpenFOAM.org                      |
|    \\/     M anipulation  |                                                 |
\*---------------------------------------------------------------------------*/
FoamFile
{
    version     2.0;
    format      ascii;
    class       volScalarField;
    location    "450";
    object      k;
}
// * * * * * * * * * * * * * * * * * * * * * * * * * * * * * * * * * * * * * //

dimensions      [0 2 -2 0 0 0 0];

internalField   nonuniform List<scalar> 
78750
(
6.7619e-05
0.000333891
0.000427569
0.000461896
0.000489153
0.000522414
0.00055506
0.00058178
0.000605117
0.000625526
0.000643173
0.000658177
0.000670858
0.000680972
0.000688912
0.000694965
0.000699158
0.000701824
0.000702155
0.000705165
0.000709043
0.000710062
0.000708703
0.00070489
0.000699219
0.000692112
0.000683551
0.000673819
0.000663536
0.000652288
0.000639789
0.000624908
0.000606581
0.00053495
0.000127086
4.95576e-05
0.000181666
0.000253665
0.000318762
0.000401455
0.000487474
0.00056502
0.000632854
0.000690087
0.000738154
0.000778076
0.000810284
0.000835509
0.000854532
0.000868079
0.00087655
0.000880502
0.00088019
0.000876853
0.000865343
0.000849552
0.000832636
0.000815275
0.000798376
0.000781384
0.00076499
0.000749146
0.000730853
0.000711898
0.000691838
0.000669536
0.000644285
0.000606418
0.000522162
0.000306583
1.63091e-05
0.000136442
0.000265993
0.00040478
0.000540646
0.000654824
0.000740501
0.000803882
0.000851684
0.000887392
0.000913221
0.000930683
0.000940943
0.000944449
0.000943261
0.000936958
0.000926391
0.000912014
0.00089411
0.00087372
0.000851525
0.000828261
0.000803893
0.000777558
0.000751497
0.000725886
0.000700939
0.000681266
0.00066655
0.000655771
0.000646173
0.000630092
0.000591894
0.000520725
0.000405485
2.40696e-05
0.000240405
0.00044154
0.000604312
0.000716389
0.000790281
0.000841857
0.000881286
0.000912479
0.000937312
0.000956612
0.000970677
0.000979541
0.000983143
0.000982116
0.000975956
0.000964738
0.000948812
0.000928642
0.000904689
0.00087711
0.000845739
0.00081073
0.000774032
0.00073724
0.00069928
0.000663106
0.000633524
0.000611585
0.000599134
0.000594885
0.000588116
0.000560666
0.000506181
0.000411175
4.14227e-05
0.000271423
0.000471459
0.000622396
0.000731691
0.000812816
0.000875868
0.000926448
0.000967307
0.000999572
0.00102379
0.0010404
0.00104974
0.00105211
0.00104906
0.00103947
0.00102405
0.00100314
0.000977096
0.000946671
0.000912582
0.000875053
0.000834056
0.000789597
0.000743546
0.000698112
0.000652684
0.000610982
0.000578173
0.000556971
0.000550994
0.000550074
0.000535569
0.000491806
0.000401801
6.55081e-05
0.000333427
0.000549168
0.000704125
0.000809206
0.000882529
0.000938109
0.000982014
0.00101678
0.00104374
0.00106373
0.00107726
0.00108465
0.00108607
0.00108254
0.00107329
0.0010589
0.00103957
0.00101544
0.000986767
0.000954097
0.000917156
0.000875454
0.000829121
0.000780426
0.000731703
0.000681204
0.000629231
0.000581317
0.000543606
0.00052236
0.000517043
0.000507104
0.000469339
0.000381064
7.7906e-05
0.000341817
0.000557024
0.000712525
0.000821997
0.000902366
0.000965323
0.0010163
0.00105757
0.00109026
0.00111505
0.00113243
0.00114275
0.00114627
0.00114409
0.00113572
0.0011215
0.00110164
0.00107635
0.00104611
0.00101162
0.000973945
0.000932795
0.000887682
0.000838709
0.000788058
0.000737295
0.000683219
0.000625462
0.000569104
0.000525122
0.000502775
0.00048775
0.000453489
0.00038154
9.56051e-05
0.000379846
0.000608063
0.000767962
0.000876528
0.000955529
0.00101727
0.0010663
0.00110488
0.00113461
0.00115652
0.00117131
0.00117935
0.00118087
0.00117742
0.00116778
0.00115248
0.00113161
0.00110534
0.00107406
0.00103836
0.000999084
0.000956206
0.000909425
0.000859153
0.000807508
0.000755604
0.000700189
0.00064134
0.00058368
0.00053126
0.000497494
0.000476488
0.000445869
0.000391311
0.000108592
0.000399352
0.00063573
0.000802028
0.000914591
0.000996092
0.00105983
0.00111069
0.00115168
0.00118368
0.00120731
0.00122342
0.0012322
0.0012339
0.00123009
0.00121919
0.00120204
0.00117918
0.00115116
0.00111848
0.00108164
0.00104133
0.000997554
0.000949829
0.000898313
0.000844851
0.000790472
0.000731914
0.000668971
0.000605361
0.000543514
0.000498061
0.000470319
0.000440568
0.000393584
0.000125723
0.000436509
0.00068777
0.000856863
0.000967493
0.00104697
0.00110757
0.0011564
0.00119581
0.00122639
0.00124847
0.00126224
0.001268
0.00126704
0.00125979
0.0012466
0.00122787
0.00120406
0.00117543
0.00114226
0.00110488
0.00106395
0.00101938
0.000970916
0.000918973
0.000865063
0.00080973
0.000750158
0.000685991
0.000621843
0.000557049
0.000502761
0.000470993
0.000441209
0.00040948
0.000149218
0.000475196
0.00073429
0.000904744
0.00101386
0.00108999
0.00114958
0.00119861
0.00123835
0.00126933
0.00129189
0.00130637
0.001313
0.00131233
0.00130489
0.00129086
0.00127113
0.00124621
0.0012164
0.00118195
0.00114318
0.00110043
0.00105339
0.00100181
0.000946187
0.000888079
0.000827919
0.000763091
0.000696843
0.000632896
0.000569508
0.000511765
0.000473501
0.000446274
0.000422978
0.000173101
0.000512983
0.000777241
0.000945124
0.00105008
0.00112468
0.00118344
0.00123136
0.00126961
0.00129878
0.00131929
0.00133162
0.0013363
0.00133464
0.00132654
0.00131286
0.00129422
0.00127102
0.00124326
0.00121082
0.0011738
0.00113199
0.00108451
0.00103089
0.000971165
0.000905983
0.000836333
0.000763493
0.000692192
0.000627087
0.000566878
0.000513823
0.000478441
0.000452036
0.000421557
0.000204259
0.000553947
0.000816317
0.000979788
0.00108282
0.00115653
0.00121476
0.00126182
0.00129906
0.00132717
0.00134667
0.00135792
0.00136109
0.00135751
0.00134672
0.00133019
0.00130903
0.00128425
0.00125631
0.00122523
0.001191
0.00115246
0.00110866
0.00105867
0.00100144
0.000935753
0.000860025
0.000774287
0.000690454
0.00061666
0.000555274
0.000509681
0.000479093
0.000450383
0.000401595
0.000222398
0.000571696
0.000831912
0.000994896
0.00109855
0.00117296
0.00123139
0.00127811
0.00131465
0.0013418
0.00136015
0.00136999
0.00137164
0.00136629
0.00135401
0.00133634
0.00131464
0.00129025
0.00126406
0.0012363
0.00120628
0.00117269
0.00113448
0.00109045
0.00103922
0.000978917
0.000906235
0.000819243
0.000721753
0.000626924
0.000555662
0.000507574
0.000477603
0.000445286
0.00038534
0.000229608
0.000577508
0.000839476
0.00100749
0.00111378
0.00118993
0.00124936
0.00129649
0.00133318
0.00136041
0.0013787
0.00138843
0.00139013
0.00138448
0.00137172
0.00135293
0.00132929
0.00130222
0.00127339
0.00124456
0.00121543
0.00118503
0.00115169
0.00111374
0.00106964
0.00101761
0.000954229
0.000875904
0.000780879
0.000670431
0.000570542
0.000509405
0.000477203
0.000441855
0.000373854
0.000228592
0.000577292
0.000840527
0.0010119
0.0011221
0.00120144
0.00126308
0.00131177
0.00134964
0.00137788
0.00139739
0.00140875
0.00141235
0.00140857
0.00139774
0.00138038
0.00135728
0.00132944
0.0012981
0.00126488
0.00123048
0.00119617
0.0011624
0.0011268
0.00108688
0.00103992
0.000981549
0.000908097
0.000816196
0.000703867
0.000594722
0.000519422
0.000477861
0.000437212
0.000365904
0.000215103
0.000563506
0.000833068
0.0010131
0.00113031
0.00121477
0.00128062
0.00133281
0.00137356
0.001404
0.00142502
0.00143744
0.00144187
0.00143881
0.00142864
0.00141161
0.00138828
0.00135937
0.0013259
0.00128957
0.00125112
0.00121129
0.0011712
0.00113116
0.00108926
0.00104222
0.000985355
0.000914913
0.000826904
0.00071789
0.000608995
0.000529302
0.000482327
0.000437497
0.000366689
0.000197692
0.000549609
0.000827926
0.00101378
0.00113634
0.00122541
0.00129559
0.00135203
0.00139695
0.00143174
0.00145721
0.00147423
0.00148351
0.00148553
0.00148119
0.00146968
0.00145109
0.00142514
0.00139147
0.00135126
0.00130587
0.00125689
0.00120657
0.00115643
0.00110613
0.00105332
0.000995531
0.000928495
0.000844101
0.000737687
0.000627697
0.000541105
0.000487989
0.000440737
0.000381088
0.000193859
0.000548679
0.000829279
0.00102447
0.00115381
0.00124744
0.0013211
0.00138038
0.0014277
0.00146441
0.00149136
0.00150939
0.00151956
0.00152287
0.00152075
0.0015129
0.00149884
0.00147783
0.00145041
0.00141644
0.00137502
0.00132508
0.00126757
0.00120559
0.00114225
0.00107914
0.00101704
0.000950547
0.000868799
0.000765075
0.000653967
0.000560922
0.000501408
0.000453486
0.00040999
0.000196972
0.000558485
0.000849078
0.00104755
0.00117835
0.00127346
0.00134902
0.0014103
0.00145937
0.00149742
0.00152521
0.00154328
0.00155261
0.00155433
0.00155083
0.00154169
0.00152858
0.00151302
0.00149431
0.00147077
0.00143952
0.00139781
0.00134461
0.00128062
0.00120955
0.00113932
0.00107135
0.000997413
0.000908241
0.000799602
0.000680472
0.0005812
0.000517174
0.000470115
0.000439724
0.000212984
0.000581977
0.000875672
0.00107401
0.00120504
0.0013013
0.00137843
0.00144146
0.00149229
0.00153191
0.0015608
0.0015793
0.00158802
0.00158818
0.00158277
0.00157244
0.00156028
0.00154733
0.00153326
0.00151664
0.0014936
0.00146027
0.00141398
0.00135369
0.00128497
0.0012163
0.00114494
0.0010635
0.000966414
0.000848993
0.000717934
0.000607582
0.000539044
0.000492012
0.000465713
0.000231703
0.000605219
0.000899476
0.00109683
0.00122723
0.00132369
0.00140143
0.00146553
0.00151793
0.00155948
0.00159037
0.00161052
0.00162002
0.00161972
0.0016116
0.00159722
0.00158019
0.00156377
0.00154964
0.00153708
0.00152106
0.00149671
0.00146073
0.00141192
0.00135427
0.00129239
0.00122234
0.00113828
0.00103502
0.000907357
0.000763024
0.000636418
0.000561674
0.00051303
0.000479581
0.000247879
0.000625476
0.000919706
0.00111586
0.00124544
0.00134174
0.00141968
0.00148458
0.00153855
0.00158238
0.00161595
0.00163851
0.0016493
0.0016485
0.00163735
0.00161823
0.00159568
0.0015747
0.0015588
0.00154763
0.00153606
0.00151859
0.00149123
0.00145332
0.00140707
0.00135394
0.00128948
0.00120783
0.00110281
0.000968808
0.000814295
0.000673937
0.000589881
0.000534013
0.000481721
0.000258734
0.000638195
0.000932095
0.00112833
0.00125772
0.00135355
0.00143098
0.00149597
0.00155122
0.0015977
0.00163483
0.00166122
0.00167558
0.00167669
0.00166573
0.00164326
0.00161463
0.00158634
0.00156444
0.00155014
0.00153918
0.00152669
0.00150809
0.00148033
0.00144348
0.00139593
0.00133408
0.00125314
0.00114619
0.00100863
0.000851442
0.000706684
0.000617235
0.000551044
0.000471878
0.000260212
0.000645866
0.000942662
0.00113998
0.0012689
0.00136372
0.00144005
0.0015045
0.00156037
0.00160926
0.00165109
0.00168438
0.00170668
0.00171489
0.00170745
0.00168472
0.00165044
0.00161149
0.00157664
0.00155129
0.00153539
0.00152334
0.00150998
0.00149029
0.00146099
0.00141878
0.00135964
0.00127853
0.00116944
0.00103095
0.000876053
0.000734105
0.000641223
0.000562885
0.000455129
0.000253729
0.000646905
0.000949433
0.00114918
0.00127828
0.001372
0.00144671
0.00150974
0.00156538
0.00161639
0.00166378
0.00170624
0.00174043
0.0017615
0.0017653
0.00175128
0.00171915
0.00167404
0.00162401
0.00157766
0.00154213
0.00151921
0.00150374
0.00148837
0.00146583
0.00142986
0.00137472
0.00129495
0.00118531
0.00104705
0.000894862
0.00075649
0.000661615
0.000575477
0.000455594
0.000247769
0.000652025
0.000962318
0.00116394
0.00129246
0.00138445
0.00145686
0.00151753
0.00157151
0.00162291
0.00167378
0.0017243
0.00177065
0.00180642
0.00182546
0.00182428
0.00180234
0.00176134
0.00170678
0.00164571
0.00158799
0.00154307
0.0015143
0.00149547
0.00147589
0.00144561
0.00139676
0.00132197
0.00121477
0.00107599
0.000921065
0.000780109
0.000682162
0.000592043
0.000471856
0.000250298
0.000668388
0.000986587
0.0011868
0.00131223
0.00140077
0.00146962
0.00152675
0.00157778
0.00162863
0.00168249
0.00174037
0.00179874
0.00184894
0.00188292
0.00189565
0.00188675
0.00185502
0.00180402
0.00173772
0.0016644
0.00159668
0.00154674
0.00151557
0.00149236
0.0014654
0.00142386
0.00135756
0.00125724
0.00112056
0.000959925
0.000810341
0.000706177
0.00061329
0.00049987
0.00026929
0.000702102
0.00102379
0.00121769
0.00133682
0.00142007
0.00148428
0.00153731
0.00158406
0.00163183
0.00168777
0.00175461
0.00182531
0.00188891
0.00193588
0.0019625
0.00196535
0.00194692
0.0019043
0.00184064
0.00176138
0.0016779
0.00160598
0.00155469
0.00151763
0.00148475
0.00144433
0.00138403
0.00129217
0.00116194
0.00100088
0.000845584
0.000734758
0.000636869
0.000519636
0.000302603
0.000746846
0.00106372
0.00124758
0.00135837
0.00143517
0.00149382
0.00154066
0.00158439
0.00163095
0.00168755
0.00175689
0.00183311
0.00190708
0.00196919
0.0020098
0.00202648
0.00201885
0.00198709
0.00193108
0.00185424
0.00176608
0.00168196
0.0016138
0.0015602
0.00151512
0.00146843
0.00140743
0.00131939
0.00119402
0.00103594
0.000880466
0.000764328
0.000657949
0.000523881
0.000342648
0.000787914
0.0010953
0.00126922
0.00137211
0.00144286
0.00149552
0.00153765
0.00157368
0.00161374
0.00166918
0.0017439
0.00182825
0.00190703
0.00197226
0.00202015
0.00205005
0.00206039
0.00204352
0.00199807
0.00192868
0.00184306
0.00175413
0.00167329
0.00160393
0.00154458
0.00148802
0.00142268
0.001336
0.00121521
0.0010634
0.000913018
0.000793362
0.000676362
0.000521216
0.000359728
0.000803017
0.00110818
0.00127866
0.00137785
0.00144448
0.00149279
0.00152626
0.00155343
0.0015832
0.00162761
0.00169453
0.00178014
0.00186891
0.00194717
0.00200833
0.00204988
0.0020708
0.00207011
0.00204579
0.00199347
0.00192023
0.00183498
0.00174684
0.00166235
0.00158515
0.00151297
0.00143771
0.00134755
0.00122935
0.0010844
0.000940484
0.00081897
0.000691676
0.000514041
0.000359362
0.000804942
0.00111234
0.00128419
0.00138268
0.00144708
0.00149262
0.00152467
0.00154534
0.00156481
0.00159452
0.00164379
0.0017153
0.00180152
0.00188588
0.0019587
0.00201591
0.00205406
0.00207003
0.00206211
0.00203092
0.00197681
0.00190468
0.00182026
0.00173013
0.00164043
0.00155323
0.00146508
0.00136676
0.00124695
0.00110594
0.000966886
0.000844292
0.000708847
0.000514967
0.000347993
0.000802568
0.00111465
0.00128918
0.00138981
0.00145502
0.0014981
0.00152539
0.00154172
0.00155159
0.00156932
0.00160988
0.00167502
0.00175511
0.00183849
0.0019139
0.00197615
0.00202262
0.00205108
0.00205895
0.0020445
0.00200797
0.0019518
0.00187813
0.00179134
0.00169736
0.0016004
0.00150093
0.0013927
0.00126768
0.00112712
0.000990848
0.00086761
0.00072646
0.00052129
0.000341323
0.000802155
0.00111736
0.00129513
0.00139805
0.00146484
0.00150877
0.0015341
0.00154498
0.00155113
0.0015633
0.00159831
0.00166242
0.00174549
0.00182949
0.00190505
0.00196671
0.00201297
0.0020432
0.00205627
0.00205122
0.00202773
0.00198569
0.00192424
0.00184522
0.0017531
0.0016524
0.00154559
0.00142856
0.00129655
0.00115308
0.00101665
0.00089133
0.000744826
0.000532167
0.000343057
0.000808468
0.00112777
0.00130663
0.00140985
0.00147668
0.00152048
0.00154516
0.00155345
0.00155305
0.00156136
0.00159654
0.00166204
0.00174744
0.00183368
0.00190911
0.00197023
0.00201576
0.00204628
0.00206175
0.00206166
0.0020466
0.00201404
0.00196209
0.00189082
0.00180294
0.00170233
0.00159134
0.00146761
0.00132913
0.00118214
0.0010445
0.000916125
0.000763738
0.000544034
0.000366733
0.000832459
0.00114856
0.00132387
0.00142521
0.00149069
0.0015325
0.00155393
0.00155719
0.00155
0.0015492
0.00158184
0.00165733
0.00175594
0.00185348
0.00193803
0.00200139
0.00204585
0.00207391
0.0020871
0.00208686
0.00207358
0.0020446
0.00199761
0.00193204
0.00184884
0.00175068
0.0016384
0.00151022
0.00136608
0.00121492
0.00107444
0.000941027
0.000780538
0.000550087
0.000408469
0.000863742
0.00116985
0.00133942
0.00143869
0.00150366
0.0015447
0.00156426
0.00156409
0.0015506
0.00153716
0.00155665
0.0016308
0.0017401
0.00185035
0.0019426
0.0020128
0.00206328
0.00209677
0.00211463
0.00211677
0.00210445
0.00207609
0.00203013
0.00196634
0.00188539
0.00178943
0.00167762
0.00154823
0.00140219
0.00124977
0.00110746
0.000968264
0.000796793
0.00054955
0.0004527
0.000881103
0.00117678
0.00134487
0.00144507
0.00151149
0.00155339
0.00157316
0.00157247
0.00155519
0.00153466
0.00152953
0.00156839
0.00166575
0.00177813
0.00188553
0.00197506
0.00204323
0.00209156
0.00212119
0.00213259
0.00212747
0.00210424
0.00206122
0.00199932
0.00192027
0.00182589
0.00171442
0.00158395
0.00143624
0.0012828
0.00113874
0.000993466
0.000809473
0.000541655
0.000465748
0.000880543
0.00117645
0.00134503
0.001446
0.00151426
0.00156049
0.00158555
0.00158917
0.0015764
0.00155192
0.00153194
0.00152763
0.00154957
0.00161651
0.0017168
0.00182937
0.00192506
0.00200358
0.00206219
0.00209898
0.0021126
0.00210176
0.00206992
0.00201688
0.0019427
0.00185105
0.00174197
0.00161373
0.00146823
0.00131664
0.00117197
0.00102067
0.000822359
0.000529585
0.000450818
0.000848716
0.001151
0.00132726
0.00143469
0.00150912
0.00156185
0.00159593
0.00161192
0.00161416
0.0016026
0.00157971
0.00155288
0.00153932
0.00153695
0.00155785
0.0016024
0.00168443
0.00178668
0.00189262
0.00197881
0.0020407
0.00206888
0.00205854
0.00201461
0.00195256
0.00187095
0.00176607
0.0016398
0.00149587
0.00134591
0.00120147
0.00104674
0.000838218
0.000525339
0.000371733
0.00078252
0.00110323
0.00129572
0.00141298
0.00149345
0.00155316
0.00159674
0.00162587
0.0016435
0.00165147
0.00165455
0.00164686
0.00162681
0.00159831
0.00156745
0.00154746
0.00153939
0.0015549
0.00160943
0.00171454
0.00183398
0.00193418
0.00198881
0.00199177
0.0019482
0.0018738
0.00178096
0.00166181
0.00152314
0.00137684
0.00123316
0.00107474
0.000855558
0.000530125
0.000273587
0.000703347
0.00104336
0.00125911
0.0013924
0.00148417
0.00154951
0.00159561
0.00162725
0.00164971
0.00166639
0.00168236
0.0017015
0.00172158
0.00173332
0.00172638
0.00169436
0.00164352
0.00158415
0.001537
0.00152697
0.00157158
0.00167577
0.00179889
0.00188192
0.00190171
0.00186729
0.00178307
0.00167468
0.00154258
0.00140172
0.00126178
0.00110543
0.000884603
0.000559621
0.000206483
0.00065229
0.00101527
0.00124949
0.00138992
0.0014838
0.00155213
0.00160355
0.0016401
0.00166399
0.00167847
0.00169191
0.00171423
0.00175172
0.00179999
0.00184347
0.00186174
0.00185108
0.00180324
0.00171786
0.0016234
0.00156872
0.00156602
0.00162381
0.00171368
0.00178852
0.00181096
0.00177754
0.00168501
0.00156645
0.00143218
0.00129415
0.00113714
0.000914901
0.000615525
0.000201044
0.000647621
0.00101487
0.00125795
0.00141062
0.00151045
0.00158089
0.00163106
0.00166433
0.00168617
0.00169901
0.00171586
0.00175417
0.0018252
0.00191985
0.00201107
0.00207081
0.00207609
0.00204656
0.00194823
0.0018061
0.00167621
0.00159252
0.00158299
0.00161525
0.00168727
0.0017386
0.00173822
0.00168053
0.00157672
0.00145386
0.00132399
0.00117535
0.000965602
0.000703217
0.000247217
0.000731825
0.00111322
0.00134141
0.00147645
0.00156335
0.00162326
0.00166398
0.00168464
0.00169307
0.00170176
0.00172917
0.00181616
0.00197834
0.00217718
0.00235873
0.00249331
0.00255175
0.0025262
0.00237918
0.0021568
0.00192867
0.00172972
0.00160957
0.0015993
0.00162862
0.00168193
0.00170417
0.00167492
0.00159161
0.00147852
0.0013511
0.00120271
0.00100199
0.000775502
0.000382495
0.000881404
0.00122201
0.00140806
0.00151888
0.00159351
0.00164475
0.0016727
0.00168553
0.00168574
0.0016948
0.00175591
0.00194069
0.00222603
0.00250462
0.00269794
0.0027876
0.00279703
0.00274776
0.00263544
0.00247007
0.00225311
0.00200064
0.00177579
0.00164858
0.001641
0.00168604
0.00170065
0.0016715
0.00159688
0.00149514
0.00137784
0.00123727
0.00103965
0.000789559
0.000593606
0.000990086
0.00126739
0.00143113
0.00153409
0.00160524
0.00165056
0.00166975
0.00166502
0.00164627
0.00165668
0.00176526
0.00201125
0.00233236
0.00259035
0.00274897
0.00280376
0.00279967
0.0027401
0.00263759
0.00249224
0.00231308
0.00211954
0.00193973
0.00181351
0.00175539
0.00173538
0.00172466
0.00168426
0.00161025
0.00150945
0.00139131
0.00124559
0.00104021
0.000751948
0.000642084
0.00100133
0.00127288
0.00143362
0.00153533
0.00160601
0.00165087
0.00166628
0.00165746
0.00162544
0.00159571
0.00162836
0.00181226
0.00213071
0.0023884
0.00256633
0.0026724
0.00270196
0.00268516
0.00262101
0.00251064
0.0023662
0.00220844
0.00205796
0.00193874
0.00186039
0.00181044
0.00176549
0.00170263
0.00161647
0.00151156
0.00139239
0.00124057
0.00100014
0.000587738
0.000611509
0.000968799
0.00123779
0.00139667
0.00150245
0.00158244
0.00163985
0.00166799
0.00167043
0.00164518
0.00159407
0.00154167
0.00152709
0.00158251
0.00186563
0.00214449
0.0023523
0.00248222
0.00253656
0.0025418
0.0024929
0.00240145
0.00228101
0.00214971
0.00203224
0.00194177
0.00187287
0.00180844
0.00173156
0.00163675
0.00152677
0.001403
0.00123985
0.000967494
0.000523365
0.000545289
0.000921257
0.00119968
0.00137096
0.0014848
0.00157072
0.00163572
0.00168024
0.00169766
0.00169298
0.00165867
0.00159473
0.0015208
0.00150525
0.00156689
0.00178206
0.00200846
0.00218586
0.00231769
0.00239902
0.00242092
0.00239197
0.00232268
0.00222081
0.00210849
0.00200674
0.00192108
0.00184113
0.00175278
0.001651
0.00153792
0.0014123
0.00124475
0.000968607
0.000524972
0.000541909
0.000911286
0.00118879
0.00135916
0.00147429
0.00156326
0.00163228
0.00168105
0.00170146
0.00169921
0.00167311
0.0016228
0.00155197
0.00150583
0.00151421
0.00162942
0.00181046
0.00198762
0.00213783
0.00225134
0.00232083
0.00234249
0.00231634
0.00225236
0.00216444
0.00206398
0.00196721
0.00187622
0.00178057
0.00167386
0.0015575
0.0014293
0.00125934
0.000978781
0.000544507
0.000520201
0.000872655
0.00115313
0.00133102
0.00145388
0.0015508
0.00162832
0.00168665
0.00172536
0.00173722
0.00172485
0.00168357
0.00161546
0.00153254
0.00149238
0.00149184
0.00157459
0.00172835
0.0018919
0.00204374
0.0021566
0.00222846
0.00225511
0.00223571
0.00217129
0.0020924
0.00200231
0.00190356
0.00179846
0.0016877
0.00156982
0.00144178
0.00127285
0.000992454
0.000558821
0.00045118
0.00082133
0.00110933
0.00129214
0.00141882
0.00151989
0.00160368
0.00167252
0.00172615
0.00176225
0.00177502
0.0017696
0.00173785
0.00167514
0.0015816
0.00149058
0.00145073
0.00146029
0.00157467
0.00173509
0.00188106
0.0020039
0.00209364
0.00213996
0.0021382
0.00208612
0.00200581
0.00191773
0.00181616
0.0017022
0.0015819
0.00145423
0.00128858
0.00101213
0.000585153
0.000380968
0.000767063
0.00106152
0.00125459
0.00138931
0.00149755
0.0015906
0.00166748
0.00172534
0.00176665
0.00179383
0.00180286
0.0017976
0.00177382
0.00172615
0.00164581
0.00153868
0.00144618
0.00141404
0.00147568
0.00161551
0.00175698
0.00187367
0.00196548
0.00202397
0.0020337
0.00199695
0.00191771
0.00182159
0.0017136
0.00159585
0.00147006
0.00130825
0.00104081
0.000632757
0.000374128
0.000758877
0.00104856
0.001244
0.00138209
0.00149288
0.00158863
0.00166866
0.0017366
0.00178969
0.00182486
0.00183981
0.00183503
0.00181194
0.00177315
0.00171827
0.00164027
0.00153319
0.00142312
0.0013782
0.00142676
0.00155359
0.00168299
0.00179103
0.00187441
0.00192827
0.00193695
0.00189804
0.00181677
0.00171263
0.00160009
0.00147924
0.00132392
0.00106608
0.000675424
0.00037466
0.000738392
0.00102427
0.00122499
0.00137028
0.00148974
0.00159039
0.00167826
0.00175314
0.0018139
0.00185906
0.00188631
0.00189277
0.00187701
0.00183822
0.001777
0.00169341
0.00158543
0.0014593
0.00135975
0.00135397
0.00142688
0.00155063
0.00166722
0.00176272
0.00183181
0.00186349
0.00184973
0.00178997
0.00170053
0.00159685
0.00148157
0.00133223
0.00107939
0.000682477
0.000386799
0.000733365
0.00101561
0.00121962
0.00136788
0.00148835
0.00159404
0.00168689
0.00176788
0.00183549
0.0018874
0.00192114
0.00193425
0.00192619
0.00189543
0.00184053
0.00175867
0.0016448
0.00150026
0.00136365
0.00130763
0.00135644
0.00146908
0.0015867
0.0016857
0.00175912
0.00179844
0.00179495
0.00174892
0.00167359
0.00158194
0.00147564
0.0013294
0.00107945
0.000672422
0.000388779
0.000714458
0.000993513
0.00120263
0.00135704
0.0014837
0.00159547
0.00169508
0.00178434
0.00186147
0.0019237
0.00196772
0.00198973
0.0019888
0.00196286
0.00191092
0.0018315
0.00171853
0.00156569
0.00140054
0.00131142
0.00132812
0.00142534
0.00153574
0.00163233
0.00170625
0.00174751
0.00175018
0.00171384
0.00164853
0.00156479
0.00146451
0.00132419
0.00107499
0.000643198
0.000384162
0.000695822
0.000977281
0.00119137
0.00134945
0.00147964
0.00159654
0.00170076
0.00179634
0.00188166
0.00195391
0.00200918
0.00204399
0.00205462
0.00204029
0.00199783
0.00192549
0.00182084
0.00167677
0.00149485
0.00133911
0.0013082
0.00137836
0.00148308
0.00157861
0.00165239
0.0016966
0.00170433
0.00167686
0.00162087
0.00154465
0.00144926
0.0013101
0.00105106
0.000590149
0.00035755
0.00066589
0.00095015
0.00116979
0.00133159
0.00146514
0.00158635
0.00170126
0.00180625
0.00190309
0.00198748
0.00205539
0.0021032
0.00212687
0.00212663
0.00209917
0.00204255
0.00195373
0.00182786
0.00165876
0.00146535
0.00135412
0.00135292
0.00144346
0.0015393
0.00161108
0.00165518
0.0016649
0.00164059
0.00158943
0.00151826
0.0014269
0.00129014
0.00102954
0.000550688
0.000322535
0.000637547
0.000926299
0.0011499
0.00131367
0.00144827
0.00157146
0.00169019
0.00180684
0.00191831
0.00202016
0.00210527
0.00216905
0.00221039
0.00222585
0.00221523
0.00217813
0.0021133
0.00201656
0.0018813
0.00169903
0.00148807
0.00137059
0.00137827
0.00146297
0.00154805
0.0016005
0.00162268
0.00161366
0.00157334
0.00150805
0.00142005
0.00128665
0.00102952
0.000554323
0.00029242
0.00061736
0.000910401
0.00113601
0.00130022
0.00143573
0.00156134
0.00168494
0.00180951
0.00193352
0.00205259
0.00215856
0.00224414
0.00230356
0.00233413
0.00233612
0.00231483
0.00226825
0.00219395
0.00208801
0.00194017
0.00174378
0.00152258
0.00138649
0.00139187
0.00146362
0.00154209
0.00157722
0.00157513
0.00154387
0.00148822
0.00140909
0.00128608
0.00104212
0.00059041
0.000255012
0.000598713
0.00089886
0.00112309
0.00128487
0.00141909
0.0015457
0.00167429
0.00180861
0.00194764
0.00208132
0.00220229
0.00230514
0.00238582
0.00244129
0.00247033
0.00247067
0.00244376
0.00238577
0.00230329
0.00219156
0.0020351
0.00181931
0.00157019
0.00140803
0.00140087
0.00145295
0.00152745
0.00155609
0.00153985
0.00148486
0.0014093
0.00128997
0.00104776
0.000607848
0.000239189
0.00059724
0.000897971
0.00112148
0.00128031
0.00140862
0.00153402
0.00166647
0.00181116
0.00196257
0.00211157
0.00224844
0.00236395
0.00245337
0.0025188
0.00256218
0.00258498
0.00258837
0.00257521
0.00253601
0.00246349
0.00234361
0.00216534
0.00192036
0.00165462
0.00144174
0.00141148
0.00143698
0.00148605
0.00150693
0.00148613
0.00142015
0.00131146
0.00108736
0.000709233
0.000246501
0.000615674
0.000918184
0.00112888
0.00127822
0.00140519
0.00152928
0.00166587
0.00182035
0.0019859
0.00214996
0.00229903
0.00242237
0.00251956
0.00259179
0.00264429
0.00267437
0.00268985
0.00269674
0.00270048
0.00270095
0.00269342
0.00264194
0.00251753
0.00233295
0.00205925
0.00171924
0.00148468
0.00147158
0.00148111
0.00148085
0.0014477
0.00135611
0.00118673
0.0011113
0.000299411
0.000673665
0.000962266
0.00115481
0.00128918
0.00140551
0.00152834
0.00167506
0.0018464
0.00203109
0.00220959
0.00236323
0.00248579
0.00257643
0.00263821
0.00267191
0.00269223
0.00270341
0.00271157
0.00272288
0.00274275
0.00277058
0.00280162
0.00279985
0.00277434
0.00268794
0.002521
0.0022407
0.00183134
0.00159203
0.00151083
0.00147336
0.00141084
0.00131427
0.00138298
0.000395888
0.000744092
0.00100392
0.00117246
0.00129036
0.00139939
0.00152211
0.00167867
0.00187117
0.00207707
0.00226741
0.00242563
0.00254415
0.00262145
0.00265961
0.00266798
0.00265874
0.00264008
0.00262756
0.00263648
0.00268523
0.00277883
0.00288226
0.00296029
0.00299413
0.00296003
0.00277756
0.00242017
0.00197695
0.00168752
0.00156474
0.00150877
0.00145137
0.00137438
0.00135658
0.000494754
0.000809875
0.00103912
0.00118046
0.00128633
0.00138778
0.00150863
0.00167218
0.00188308
0.0021121
0.00232248
0.00248178
0.00258853
0.00264454
0.00265554
0.00262774
0.00257021
0.00250629
0.00247445
0.00250859
0.00264372
0.00281582
0.00294532
0.00299323
0.00297507
0.00283163
0.00256019
0.00220352
0.00186939
0.00166878
0.00157826
0.00151289
0.00144229
0.00127125
0.000778016
0.000550709
0.000833079
0.00104563
0.00117542
0.00126714
0.00135627
0.00147055
0.00163819
0.00186571
0.00211333
0.0023263
0.00248661
0.00259587
0.00265523
0.00265918
0.00261512
0.00253274
0.0024225
0.00230433
0.00229613
0.00244268
0.00261437
0.00270994
0.00271409
0.00259255
0.00241338
0.00218341
0.00194894
0.00176646
0.0016535
0.00157401
0.00148946
0.00133788
0.00101904
0.000427776
0.000557208
0.000834387
0.00104121
0.00116049
0.00124147
0.00131754
0.00141367
0.0015614
0.00178108
0.00203609
0.00227115
0.00245557
0.00258812
0.0026677
0.00269405
0.00265519
0.00255494
0.00240326
0.00223014
0.00209116
0.00207191
0.00218067
0.00229545
0.0023061
0.00223565
0.00210152
0.00194351
0.0017965
0.00168541
0.00160105
0.00152354
0.00141642
0.00122728
0.000866271
0.000331523
0.000553523
0.000813872
0.00102543
0.0011447
0.0012205
0.00128405
0.00135542
0.00146399
0.0016422
0.00188426
0.00213488
0.00235041
0.00252343
0.00264968
0.00272357
0.00274393
0.00269144
0.00255782
0.00235117
0.00209899
0.00189003
0.00183757
0.00189875
0.00196242
0.00196983
0.0019209
0.00182971
0.00173012
0.0016437
0.00156806
0.00148763
0.00138382
0.00120734
0.000864565
0.000335391
0.000501365
0.000778445
0.00100031
0.0011244
0.00120039
0.00125521
0.00130165
0.00135982
0.00146592
0.00165594
0.00190343
0.00214971
0.00236659
0.00254654
0.00268411
0.00277214
0.00280477
0.00277675
0.00265891
0.0024631
0.00221029
0.00194507
0.00175765
0.00172149
0.00172989
0.00174483
0.00173404
0.001696
0.00163728
0.00156738
0.00148907
0.00138618
0.00121608
0.000893948
0.000424956
0.000443761
0.000737449
0.000969358
0.00110441
0.00118945
0.00125119
0.00129673
0.00133453
0.00138417
0.00148574
0.00167151
0.00190941
0.00215094
0.00237068
0.00255863
0.00270924
0.00281424
0.00286329
0.00285923
0.00277569
0.00261974
0.0023972
0.00211297
0.00184025
0.00169643
0.00163657
0.00162026
0.00161341
0.00159977
0.00156191
0.00149453
0.00139987
0.00125624
0.000979302
0.000583471
0.000393452
0.000696516
0.000936199
0.0010798
0.00117029
0.00123665
0.00128766
0.00132704
0.00136032
0.0014051
0.00150133
0.00168222
0.00191041
0.00215079
0.00237589
0.00257234
0.00273351
0.00285223
0.0029197
0.00293254
0.00288069
0.00276371
0.00258208
0.0023331
0.00202008
0.00173869