/*--------------------------------*- C++ -*----------------------------------*\
| =========                 |                                                 |
| \\      /  F ield         | OpenFOAM: The Open Source CFD Toolbox           |
|  \\    /   O peration     | Version:  2.0.x                                 |
|   \\  /    A nd           | Web:      www.OpenFOAM.org                      |
|    \\/     M anipulation  |                                                 |
\*---------------------------------------------------------------------------*/
FoamFile
{
    version     2.0;
    format      ascii;
    class       volScalarField;
    location    "450";
    object      mut;
}
// * * * * * * * * * * * * * * * * * * * * * * * * * * * * * * * * * * * * * //

dimensions      [1 -1 -1 0 0 0 0];

internalField   nonuniform List<scalar> 
78750
(
8.03325e-08
1.31003e-05
1.66581e-05
2.06339e-05
2.41107e-05
2.4256e-05
2.29792e-05
2.24601e-05
2.20576e-05
2.19934e-05
2.21078e-05
2.24518e-05
2.27586e-05
2.30637e-05
2.36262e-05
2.41153e-05
2.463e-05
2.64157e-05
2.78293e-05
2.80689e-05
2.649e-05
2.70937e-05
2.99642e-05
2.98149e-05
2.95491e-05
2.95876e-05
2.91171e-05
2.80429e-05
2.6093e-05
2.48341e-05
2.3329e-05
2.0855e-05
1.83571e-05
1.52733e-05
1.35856e-07
5.89379e-08
1.3718e-05
9.4825e-06
9.0229e-06
1.10696e-05
1.39539e-05
2.12661e-05
3.02788e-05
3.60574e-05
3.98098e-05
4.15161e-05
4.45202e-05
4.7551e-05
4.89279e-05
5.2152e-05
5.52018e-05
5.66012e-05
5.68903e-05
5.94377e-05
6.64038e-05
7.30122e-05
7.27067e-05
7.02623e-05
6.67794e-05
6.49068e-05
6.28518e-05
4.5155e-05
4.59542e-05
4.84982e-05
3.5277e-05
2.94699e-05
2.43279e-05
2.07737e-05
2.20978e-05
3.26782e-07
1.94096e-08
3.61871e-06
5.66098e-06
8.85201e-06
1.49305e-05
2.78148e-05
4.48429e-05
5.50916e-05
6.2408e-05
6.73327e-05
7.05051e-05
7.26359e-05
7.42158e-05
7.55789e-05
7.62907e-05
7.68012e-05
7.66307e-05
7.16247e-05
6.72079e-05
6.75953e-05
6.74756e-05
6.83146e-05
6.80683e-05
6.47138e-05
5.9635e-05
4.34452e-05
4.34153e-05
4.49339e-05
3.34359e-05
2.78527e-05
2.38125e-05
2.08734e-05
2.21865e-05
3.04644e-05
4.3078e-07
2.86356e-08
4.46069e-06
9.44741e-06
1.90609e-05
3.55685e-05
5.14296e-05
6.07752e-05
6.81286e-05
7.41573e-05
7.85996e-05
8.14349e-05
8.31871e-05
8.40536e-05
8.42241e-05
8.37288e-05
8.2612e-05
8.10864e-05
7.85747e-05
7.43261e-05
6.85424e-05
6.17928e-05
5.37821e-05
4.81043e-05
4.5953e-05
4.41627e-05
3.60711e-05
3.57375e-05
3.43386e-05
2.57935e-05
2.17272e-05
1.82027e-05
1.69214e-05
2.13866e-05
2.49067e-05
4.35435e-07
4.92718e-08
4.39032e-06
1.04482e-05
2.08428e-05
3.55497e-05
5.12114e-05
6.37175e-05
7.17986e-05
7.66887e-05
7.97493e-05
8.1566e-05
8.22973e-05
8.19987e-05
8.07633e-05
7.89436e-05
7.64931e-05
7.34911e-05
7.01295e-05
6.66966e-05
6.33296e-05
5.98507e-05
5.56422e-05
5.05514e-05
4.59943e-05
4.35851e-05
3.82617e-05
3.02751e-05
2.95054e-05
2.40853e-05
1.65887e-05
1.37898e-05
1.38445e-05
1.98642e-05
2.12058e-05
4.24663e-07
7.78967e-08
5.12506e-06
1.3098e-05
2.79904e-05
4.77092e-05
6.29492e-05
7.24319e-05
7.85942e-05
8.25252e-05
8.46859e-05
8.55871e-05
8.55414e-05
8.4821e-05
8.35799e-05
8.19472e-05
7.98057e-05
7.70921e-05
7.36945e-05
6.95166e-05
6.45916e-05
5.91863e-05
5.37244e-05
4.89152e-05
4.60816e-05
4.64259e-05
4.37246e-05
3.35183e-05
2.85434e-05
2.16649e-05
1.40478e-05
1.13646e-05
1.18376e-05
1.81527e-05
1.77629e-05
4.02101e-07
9.26286e-08
5.01723e-06
1.28021e-05
2.68187e-05
4.55602e-05
6.13311e-05
7.15506e-05
7.78813e-05
8.17297e-05
8.37784e-05
8.46042e-05
8.44535e-05
8.35985e-05
8.22177e-05
8.04405e-05
7.81366e-05
7.5315e-05
7.21081e-05
6.86842e-05
6.50295e-05
6.10082e-05
5.65349e-05
5.17197e-05
4.72186e-05
4.43599e-05
4.40984e-05
3.97447e-05
2.9059e-05
2.39789e-05
1.5806e-05
9.94279e-06
9.66058e-06
1.57353e-05
1.6786e-05
4.02265e-07
1.13651e-07
5.36788e-06
1.42506e-05
3.08552e-05
5.14181e-05
6.62882e-05
7.54241e-05
8.12743e-05
8.49092e-05
8.67876e-05
8.74844e-05
8.72337e-05
8.64126e-05
8.56271e-05
8.47944e-05
8.24813e-05
7.87229e-05
7.45182e-05
7.05169e-05
6.66821e-05
6.27799e-05
5.86916e-05
5.43625e-05
5.01534e-05
4.72335e-05
4.62438e-05
4.07438e-05
2.94276e-05
2.41276e-05
1.5771e-05
9.73151e-06
9.01199e-06
1.43414e-05
1.56861e-05
4.12164e-07
1.29072e-07
5.31897e-06
1.40033e-05
3.03416e-05
5.10837e-05
6.61089e-05
7.50204e-05
8.07311e-05
8.45639e-05
8.67987e-05
8.78377e-05
8.7907e-05
8.7178e-05
8.47572e-05
8.07796e-05
7.71338e-05
7.46068e-05
7.26988e-05
7.05554e-05
6.78718e-05
6.46759e-05
6.10162e-05
5.694e-05
5.28384e-05
4.99047e-05
4.89369e-05
4.35534e-05
3.21706e-05
2.61762e-05
1.62989e-05
9.43446e-06
8.37776e-06
1.34812e-05
1.50734e-05
4.14244e-07
1.49405e-07
5.5441e-06
1.49929e-05
3.31011e-05
5.48798e-05
6.9219e-05
7.7254e-05
8.22901e-05
8.55201e-05
8.75938e-05
8.84462e-05
8.85873e-05
8.78971e-05
8.55298e-05
8.2088e-05
7.90792e-05
7.64894e-05
7.39913e-05
7.12783e-05
6.84136e-05
6.53779e-05
6.21419e-05
5.86233e-05
5.49664e-05
5.18257e-05
4.93771e-05
4.27672e-05
3.16055e-05
2.67662e-05
1.74392e-05
9.82517e-06
8.33424e-06
1.30574e-05
1.50013e-05
4.30786e-07
1.77279e-07
5.68523e-06
1.54958e-05
3.44664e-05
5.65175e-05
7.01363e-05
7.74854e-05
8.20529e-05
8.4778e-05
8.64045e-05
8.68588e-05
8.57153e-05
8.31185e-05
8.11857e-05
8.05006e-05
7.94501e-05
7.74663e-05
7.47037e-05
7.17534e-05
6.90284e-05
6.66015e-05
6.42705e-05
6.17706e-05
5.89515e-05
5.59686e-05
5.22904e-05
4.41273e-05
3.21703e-05
2.70346e-05
1.77674e-05
1.00856e-05
8.35242e-06
1.27994e-05
1.45067e-05
4.44771e-07
2.05599e-07
5.94386e-06
1.6531e-05
3.70628e-05
5.9422e-05
7.23417e-05
7.90397e-05
8.2922e-05
8.49964e-05
8.60386e-05
8.61962e-05
8.50918e-05
8.36207e-05
8.22902e-05
8.05045e-05
7.80203e-05
7.5269e-05
7.23588e-05
6.967e-05
6.79139e-05
6.72803e-05
6.71522e-05
6.67758e-05
6.53689e-05
6.202e-05
5.54462e-05
4.48238e-05
3.28413e-05
2.65906e-05
1.67365e-05
9.84643e-06
8.60776e-06
1.40249e-05
1.32896e-05
4.42966e-07
2.42523e-07
6.22696e-06
1.75419e-05
3.92237e-05
6.12731e-05
7.3387e-05
7.95345e-05
8.27327e-05
8.38583e-05
8.3897e-05
8.29782e-05
8.26563e-05
8.26691e-05
8.11377e-05
7.83314e-05
7.51141e-05
7.20922e-05
6.94012e-05
6.71795e-05
6.64135e-05
6.76496e-05
6.98772e-05
7.17006e-05
7.17338e-05
6.84896e-05
6.09329e-05
4.88539e-05
3.49257e-05
2.56406e-05
1.55783e-05
9.64625e-06
8.94689e-06
1.55707e-05
1.21002e-05
4.21797e-07
2.64007e-07
6.46785e-06
1.83931e-05
4.0644e-05
6.21894e-05
7.38919e-05
7.95944e-05
8.21605e-05
8.32174e-05
8.3167e-05
8.25118e-05
8.14059e-05
7.88958e-05
7.59631e-05
7.29684e-05
7.01097e-05
6.76041e-05
6.57152e-05
6.44129e-05
6.47188e-05
6.77027e-05
7.21392e-05
7.59448e-05
7.73758e-05
7.46541e-05
6.65332e-05
5.33258e-05
3.97973e-05
2.72908e-05
1.53353e-05
9.62766e-06
9.12299e-06
1.65192e-05
1.14311e-05
4.0465e-07
2.72541e-07
6.56438e-06
1.87047e-05
4.13193e-05
6.27945e-05
7.41411e-05
7.96295e-05
8.19993e-05
8.22111e-05
8.13861e-05
8.00783e-05
7.80566e-05
7.58138e-05
7.34465e-05
7.07948e-05
6.80389e-05
6.52888e-05
6.28598e-05
6.15846e-05
6.22378e-05
6.587e-05
7.15267e-05
7.66646e-05
7.99325e-05
7.90185e-05
7.18271e-05
5.77068e-05
4.34381e-05
2.8389e-05
1.56582e-05
9.7775e-06
9.31192e-06
1.74191e-05
1.08321e-05
3.92518e-07
2.71335e-07
6.57512e-06
1.86874e-05
4.10861e-05
6.25973e-05
7.41246e-05
7.94348e-05
8.14788e-05
8.15884e-05
8.07098e-05
7.92561e-05
7.73949e-05
7.52787e-05
7.30529e-05
7.06785e-05
6.81663e-05
6.5649e-05
6.31108e-05
6.06303e-05
5.90298e-05
6.02811e-05
6.60763e-05
7.46065e-05
8.16306e-05
8.36246e-05
7.57735e-05
5.98621e-05
4.47583e-05
2.76171e-05
1.55675e-05
1.02359e-05
9.97825e-06
1.92737e-05
1.02302e-05
3.84059e-07
2.55362e-07
6.46854e-06
1.8115e-05
3.95827e-05
6.14512e-05
7.3696e-05
7.9327e-05
8.14804e-05
8.16179e-05
8.05171e-05
7.86314e-05
7.62776e-05
7.37579e-05
7.12174e-05
6.88114e-05
6.65313e-05
6.43893e-05
6.22779e-05
6.01455e-05
5.82453e-05
5.80768e-05
6.06046e-05
6.60339e-05
7.31537e-05
7.70937e-05
7.17555e-05
5.81064e-05
4.44699e-05
2.76756e-05
1.57818e-05
1.06211e-05
1.05848e-05
2.07241e-05
9.97389e-06
3.84799e-07
2.34743e-07
6.25135e-06
1.7338e-05
3.85658e-05
6.07022e-05
7.31699e-05
7.91899e-05
8.17058e-05
8.20342e-05
8.09857e-05
7.91124e-05
7.6753e-05
7.41292e-05
7.14135e-05
6.88034e-05
6.64504e-05
6.431e-05
6.19618e-05
5.92771e-05
5.68099e-05
5.54296e-05
5.60905e-05
5.90666e-05
6.38186e-05
6.73229e-05
6.51825e-05
6.04096e-05
4.57171e-05
2.80464e-05
1.67516e-05
1.12467e-05
1.10782e-05
2.1358e-05
9.96875e-06
3.99865e-07
2.30207e-07
6.18253e-06
1.6869e-05
3.70631e-05
5.95099e-05
7.32222e-05
8.0082e-05
8.31149e-05
8.36862e-05
8.27773e-05
8.08978e-05
7.83964e-05
7.55121e-05
7.24717e-05
6.94475e-05
6.63207e-05
6.35066e-05
6.16248e-05
6.02231e-05
5.85164e-05
5.6971e-05
5.59649e-05
5.62337e-05
5.82318e-05
6.04339e-05
6.07749e-05
6.13052e-05
4.80224e-05
2.95558e-05
1.79142e-05
1.20305e-05
1.16972e-05
2.20589e-05
1.00894e-05
4.30103e-07
2.33901e-07
6.09636e-06
1.65978e-05
3.67964e-05
5.98092e-05
7.39599e-05
8.11762e-05
8.46827e-05
8.55724e-05
8.47639e-05
8.27595e-05
7.99683e-05
7.66451e-05
7.3124e-05
6.94981e-05
6.64548e-05
6.4036e-05
6.20914e-05
6.08326e-05
5.96012e-05
5.86191e-05
5.79191e-05
5.71806e-05
5.68383e-05
5.82126e-05
6.53255e-05
6.23835e-05
4.59065e-05
3.11191e-05
1.93971e-05
1.29646e-05
1.24669e-05
2.31716e-05
1.00619e-05
4.61181e-07
2.52878e-07
6.1845e-06
1.6955e-05
3.75731e-05
6.05174e-05
7.45002e-05
8.1729e-05
8.53383e-05
8.63103e-05
8.55876e-05
8.35459e-05
8.05513e-05
7.70017e-05
7.3009e-05
6.93977e-05
6.59746e-05
6.30264e-05
6.12811e-05
6.03862e-05
5.98468e-05
5.97222e-05
5.96121e-05
5.86273e-05
5.83563e-05
6.50399e-05
7.06207e-05
6.04791e-05
4.66247e-05
3.2607e-05
2.0787e-05
1.39799e-05
1.33956e-05
2.4878e-05
9.96176e-06
4.88308e-07
2.75048e-07
6.33592e-06
1.74532e-05
3.84704e-05
6.12033e-05
7.4926e-05
8.20147e-05
8.54355e-05
8.61842e-05
8.53104e-05
8.33228e-05
8.025e-05
7.64592e-05
7.26642e-05
6.85506e-05
6.43171e-05
6.09964e-05
5.9044e-05
5.8456e-05
5.87254e-05
5.95959e-05
6.07702e-05
6.16145e-05
6.32355e-05
7.02092e-05
7.13326e-05
6.04494e-05
4.78288e-05
3.36888e-05
2.1826e-05
1.49897e-05
1.46236e-05
2.78716e-05
9.62715e-06
5.02727e-07
2.942e-07
6.50597e-06
1.79993e-05
3.94071e-05
6.19188e-05
7.53961e-05
8.23824e-05
8.56184e-05
8.63102e-05
8.50855e-05
8.23807e-05
7.96165e-05
7.63892e-05
7.19624e-05
6.70423e-05
6.25746e-05
5.90748e-05
5.70646e-05
5.67337e-05
5.77328e-05
5.95778e-05
6.2104e-05
6.49315e-05
6.8321e-05
7.45283e-05
7.31411e-05
6.12619e-05
4.76907e-05
3.36003e-05
2.23281e-05
1.60456e-05
1.64585e-05
3.22875e-05
9.26498e-06
5.04826e-07
3.07048e-07
6.66355e-06
1.83491e-05
3.96288e-05
6.17292e-05
7.52466e-05
8.21653e-05
8.50708e-05
8.50423e-05
8.37371e-05
8.18845e-05
7.86971e-05
7.44859e-05
7.01231e-05
6.58768e-05
6.17116e-05
5.81161e-05
5.57673e-05
5.52202e-05
5.64703e-05
5.89836e-05
6.26488e-05
6.74171e-05
7.38288e-05
7.57847e-05
6.97102e-05
5.96896e-05
4.60873e-05
3.25012e-05
2.23548e-05
1.72153e-05
1.92054e-05
3.74627e-05
8.97293e-06
4.94385e-07
3.0879e-07
6.75224e-06
1.8561e-05
3.99456e-05
6.19019e-05
7.5084e-05
8.16583e-05
8.41985e-05
8.39201e-05
8.19055e-05
7.88406e-05
7.53989e-05
7.19097e-05
6.87485e-05
6.55944e-05
6.21998e-05
5.86655e-05
5.56032e-05
5.39277e-05
5.42834e-05
5.67523e-05
6.11996e-05
6.69252e-05
7.28622e-05
7.43173e-05
6.88346e-05
5.85167e-05
4.47261e-05
3.16252e-05
2.24399e-05
1.84226e-05
2.20017e-05
3.98498e-05
8.78354e-06
4.76787e-07
3.0111e-07
6.72558e-06
1.84716e-05
3.99684e-05
6.19715e-05
7.48928e-05
8.09949e-05
8.29199e-05
8.18736e-05
7.9052e-05
7.5386e-05
7.18818e-05
6.96397e-05
6.80247e-05
6.65088e-05
6.45316e-05
6.16194e-05
5.79803e-05
5.45794e-05
5.26763e-05
5.32671e-05
5.68544e-05
6.2752e-05
6.98015e-05
7.1813e-05
6.65843e-05
5.74392e-05
4.4702e-05
3.20785e-05
2.31419e-05
1.95873e-05
2.40545e-05
4.08633e-05
8.86726e-06
4.77271e-07
2.94055e-07
6.71147e-06
1.83348e-05
3.96453e-05
6.19492e-05
7.48489e-05
8.06355e-05
8.19754e-05
7.99154e-05
7.58595e-05
7.17894e-05
6.91283e-05
6.78104e-05
6.75864e-05
6.76497e-05
6.7072e-05
6.52171e-05
6.19853e-05
5.79795e-05
5.42731e-05
5.23201e-05
5.36629e-05
6.07016e-05
6.68264e-05
6.6708e-05
6.49451e-05
5.8153e-05
4.67364e-05
3.42421e-05
2.47628e-05
2.07587e-05
2.51362e-05
4.18378e-05
9.06674e-06
4.94307e-07
2.97049e-07
6.69213e-06
1.81368e-05
3.96046e-05
6.23696e-05
7.4956e-05
8.01423e-05
8.05781e-05
7.67325e-05
7.18585e-05
6.78373e-05
6.56587e-05
6.57011e-05
6.73377e-05
6.94012e-05
7.06991e-05
7.04063e-05
6.80244e-05
6.38219e-05
5.87584e-05
5.46214e-05
5.34914e-05
5.88501e-05
6.4096e-05
6.39069e-05
6.33659e-05
5.82653e-05
4.83472e-05
3.64933e-05
2.68317e-05
2.24616e-05
2.67591e-05
4.31243e-05
9.29371e-06
5.23588e-07
3.19524e-07
6.78027e-06
1.84855e-05
4.07208e-05
6.35124e-05
7.50293e-05
7.90229e-05
7.73737e-05
7.19364e-05
6.64716e-05
6.26262e-05
6.14821e-05
6.35959e-05
6.79653e-05
7.27848e-05
7.63678e-05
7.74806e-05
7.57879e-05
7.13994e-05
6.53313e-05
5.95493e-05
5.64292e-05
5.96466e-05
6.28689e-05
6.17916e-05
6.11593e-05
5.67423e-05
4.80395e-05
3.74177e-05
2.8517e-05
2.46357e-05
2.96607e-05
4.46733e-05
9.41896e-06
5.44214e-07
3.58916e-07
6.9916e-06
1.92902e-05
4.25683e-05
6.47378e-05
7.46671e-05
7.59996e-05
7.22511e-05
6.71047e-05
6.08832e-05
5.69686e-05
5.76116e-05
6.25129e-05
6.99874e-05
7.76412e-05
8.31138e-05
8.51165e-05
8.34079e-05
7.85215e-05
7.16915e-05
6.5188e-05
6.12994e-05
6.22566e-05
6.28245e-05
6.0848e-05
5.93659e-05
5.48574e-05
4.68043e-05
3.74039e-05
2.9779e-05
2.70679e-05
3.35044e-05
4.5473e-05
9.38618e-06
5.48596e-07
4.06234e-07
7.28217e-06
2.04819e-05
4.54992e-05
6.63821e-05
7.3759e-05
7.41645e-05
6.9664e-05
6.15195e-05
5.41851e-05
5.17848e-05
5.49173e-05
6.24172e-05
7.23207e-05
8.17034e-05
8.81179e-05
9.04614e-05
8.87995e-05
8.38286e-05
7.71596e-05
7.1016e-05
6.64687e-05
6.44386e-05
6.25831e-05
5.98317e-05
5.7111e-05
5.23335e-05
4.50415e-05
3.70035e-05
3.09314e-05
2.9857e-05
3.80233e-05
4.53598e-05
9.38591e-06
5.45702e-07
4.2638e-07
7.46545e-06
2.1241e-05
4.65418e-05
6.66319e-05
7.35457e-05
7.20914e-05
6.45964e-05
5.62688e-05
5.03534e-05
4.82666e-05
5.14361e-05
6.00249e-05
7.14859e-05
8.24059e-05
8.97738e-05
9.23844e-05
9.07919e-05
8.6367e-05
8.06865e-05
7.53949e-05
7.10652e-05
6.71645e-05
6.30378e-05
5.90691e-05
5.54187e-05
5.05716e-05
4.39179e-05
3.68708e-05
3.19536e-05
3.21927e-05
4.16025e-05
4.49281e-05
9.34583e-06
5.38142e-07
4.25943e-07
7.47741e-06
2.13753e-05
4.70645e-05
6.65963e-05
7.19972e-05
6.95249e-05
6.34173e-05
5.61537e-05
4.99126e-05
4.64637e-05
4.68314e-05
5.2712e-05
6.4191e-05
7.73207e-05
8.73464e-05
9.19798e-05
9.15921e-05
8.79481e-05
8.29505e-05
7.81349e-05
7.3682e-05
6.88059e-05
6.38805e-05
5.96291e-05
5.553e-05
5.0485e-05
4.40648e-05
3.75099e-05
3.32657e-05
3.44297e-05
4.46321e-05
4.49577e-05
9.42784e-06
5.39103e-07
4.12513e-07
7.41239e-06
2.12842e-05
4.70395e-05
6.58498e-05
7.10823e-05
6.93915e-05
6.39398e-05
5.66344e-05
4.9536e-05
4.47425e-05
4.38843e-05
4.74603e-05
5.62026e-05
6.94397e-05
8.23579e-05
9.02739e-05
9.19225e-05
8.91397e-05
8.44309e-05
7.96445e-05
7.55982e-05
7.06777e-05
6.52733e-05
6.07747e-05
5.63631e-05
5.11629e-05
4.4871e-05
3.8608e-05
3.48061e-05
3.6659e-05
4.73066e-05
4.51977e-05
9.54431e-06
5.4571e-07
4.04662e-07
7.38198e-06
2.10137e-05
4.60661e-05
6.50667e-05
7.09612e-05
6.99185e-05
6.48177e-05
5.74452e-05
4.95e-05
4.30475e-05
4.04154e-05
4.2883e-05
5.06535e-05
6.30382e-05
7.73776e-05
8.8369e-05
9.2495e-05
9.06385e-05
8.5938e-05
8.10339e-05
7.75453e-05
7.25757e-05
6.6575e-05
6.19231e-05
5.74114e-05
5.22309e-05
4.61616e-05
4.0234e-05
3.68796e-05
3.93766e-05
5.0231e-05
4.54987e-05
9.69966e-06
5.57072e-07
4.06725e-07
7.31129e-06
2.07071e-05
4.56321e-05
6.47479e-05
7.0617e-05
6.97074e-05
6.4567e-05
5.63808e-05
4.7268e-05
4.11338e-05
3.91641e-05
4.11887e-05
4.78192e-05
5.93638e-05
7.40616e-05
8.70149e-05
9.32725e-05
9.23839e-05
8.76569e-05
8.36424e-05
7.99735e-05
7.39557e-05
6.77899e-05
6.28841e-05
5.82829e-05
5.31869e-05
4.74142e-05
4.19803e-05
3.9283e-05
4.25623e-05
5.34153e-05
4.55297e-05
9.81789e-06
5.69453e-07
4.34721e-07
7.3989e-06
2.10754e-05
4.65214e-05
6.53065e-05
7.07557e-05
6.92666e-05
6.26591e-05
5.40836e-05
4.60801e-05
4.00083e-05
3.76513e-05
4.00338e-05
4.73089e-05
5.93968e-05
7.46665e-05
8.83664e-05
9.54811e-05
9.51339e-05
9.0918e-05
8.69638e-05
8.14123e-05
7.44555e-05
6.86828e-05
6.36555e-05
5.89109e-05
5.39502e-05
4.86373e-05
4.39267e-05
4.21116e-05
4.62455e-05
5.66675e-05
4.51466e-05
9.84248e-06
5.75757e-07
4.84003e-07
7.59589e-06
2.19316e-05
4.81698e-05
6.59283e-05
7.02933e-05
6.7696e-05
6.14237e-05
5.30929e-05
4.42935e-05
3.78435e-05
3.58808e-05
3.93933e-05
4.8391e-05
6.16921e-05
7.69981e-05
9.0202e-05
9.71579e-05
9.70015e-05
9.30365e-05
8.78649e-05
8.16053e-05
7.4922e-05
6.88258e-05
6.35829e-05
5.88022e-05
5.40689e-05
4.93442e-05
4.55874e-05
4.49289e-05
5.00638e-05
5.98203e-05
4.43238e-05
9.8213e-06
5.7516e-07
5.36153e-07
7.82638e-06
2.31327e-05
4.984e-05
6.6363e-05
7.00999e-05
6.72041e-05
5.98147e-05
5.04335e-05
4.22914e-05
3.76311e-05
3.66998e-05
3.98354e-05
4.82144e-05
6.07135e-05
7.50561e-05
8.73735e-05
9.40697e-05
9.46377e-05
9.27144e-05
8.73377e-05
7.99899e-05
7.3795e-05
6.80466e-05
6.29154e-05
5.82953e-05
5.39222e-05
4.98425e-05
4.70048e-05
4.74104e-05
5.35905e-05
6.25013e-05
4.32118e-05
9.72841e-06
5.66856e-07
5.5148e-07
7.89728e-06
2.34117e-05
5.02394e-05
6.62676e-05
6.90799e-05
6.51419e-05
5.78646e-05
5.07806e-05
4.51493e-05
4.10303e-05
3.9517e-05
4.0744e-05
4.50782e-05
5.36367e-05
6.54103e-05
7.71991e-05
8.46153e-05
8.67605e-05
8.71646e-05
8.28794e-05
7.57244e-05
7.04065e-05
6.56549e-05
6.1238e-05
5.7078e-05
5.32173e-05
4.99127e-05
4.8131e-05
4.97419e-05
5.67986e-05
6.46959e-05
4.21158e-05
9.65711e-06
5.54212e-07
5.33833e-07
7.80563e-06
2.3279e-05
4.94194e-05
6.43898e-05
6.71953e-05
6.49676e-05
6.10775e-05
5.60896e-05
5.1491e-05
4.81564e-05
4.50429e-05
4.30858e-05
4.33363e-05
4.60666e-05
5.15801e-05
5.88417e-05
6.61298e-05
7.11626e-05
7.49469e-05
7.36112e-05
6.90277e-05
6.56731e-05
6.22603e-05
5.86982e-05
5.54363e-05
5.2396e-05
4.98377e-05
4.88865e-05
5.14147e-05
5.90974e-05
6.63376e-05
4.20342e-05
9.71739e-06
5.49756e-07
4.40482e-07
7.38709e-06
2.13376e-05
4.57876e-05
6.30356e-05
6.80743e-05
6.79442e-05
6.50525e-05
6.19314e-05
5.91716e-05
5.54683e-05
5.14074e-05
4.7394e-05
4.43507e-05
4.29687e-05
4.35092e-05
4.58692e-05
4.90883e-05
5.23467e-05
5.51377e-05
5.74144e-05
5.77833e-05
5.73361e-05
5.66333e-05
5.5158e-05
5.29878e-05
5.07698e-05
4.93464e-05
4.96039e-05
5.34121e-05
6.17393e-05
6.7917e-05
4.18288e-05
9.82704e-06
5.54751e-07
3.24536e-07
6.70939e-06
1.85069e-05
4.0367e-05
6.08506e-05
6.8814e-05
6.95505e-05
6.78867e-05
6.56731e-05
6.27597e-05
5.9216e-05
5.51073e-05
5.10084e-05
4.722e-05
4.43032e-05
4.24186e-05
4.18137e-05
4.22475e-05
4.26437e-05
4.22222e-05
4.47932e-05
4.59625e-05
4.54788e-05
4.83052e-05
5.01308e-05
5.02094e-05
4.94222e-05
4.87181e-05
4.99874e-05
5.47099e-05
6.32551e-05
6.85949e-05
4.28993e-05
1.02121e-05
5.85547e-07
2.45151e-07
6.01666e-06
1.65114e-05
3.76506e-05
5.91368e-05
6.79386e-05
7.01773e-05
6.969e-05
6.75993e-05
6.47028e-05
6.12226e-05
5.7331e-05
5.34371e-05
4.95491e-05
4.60318e-05
4.41221e-05
4.29915e-05
4.20244e-05
4.01468e-05
3.75724e-05
4.17853e-05
4.39109e-05
3.907e-05
4.05007e-05
4.36204e-05
4.65051e-05
4.82023e-05
4.95042e-05
5.17952e-05
5.73921e-05
6.57072e-05
6.92902e-05
4.3907e-05
1.06416e-05
6.43865e-07
2.38734e-07
5.76989e-06
1.50199e-05
3.32756e-05
5.49012e-05
6.65481e-05
7.06658e-05
7.14335e-05
6.98387e-05
6.68009e-05
6.26778e-05
5.66067e-05
4.98581e-05
4.6732e-05
4.69307e-05
4.82199e-05
4.95506e-05
4.92735e-05
4.58206e-05
3.97511e-05
4.32459e-05
4.62892e-05
3.9301e-05
3.88041e-05
4.01282e-05
4.29852e-05
4.58741e-05
4.87265e-05
5.27927e-05
5.93138e-05
6.72299e-05
6.95848e-05
4.58311e-05
1.11973e-05
7.35219e-07
2.93473e-07
5.95517e-06
1.57419e-05
3.51299e-05
5.7422e-05
6.82721e-05
7.19042e-05
7.31882e-05
7.20446e-05
6.67359e-05
5.76133e-05
5.01126e-05
4.71888e-05
4.73668e-05
5.05459e-05
5.55841e-05
6.04116e-05
6.08631e-05
5.61459e-05
5.26375e-05
5.90769e-05
5.54379e-05
4.23903e-05
3.90104e-05
3.96436e-05
4.21526e-05
4.63942e-05
5.09342e-05
5.61798e-05
6.29491e-05
6.97826e-05
7.0239e-05
4.58856e-05
1.14692e-05
8.10336e-07
4.53524e-07
6.76087e-06
1.82106e-05
4.04851e-05
6.1245e-05
6.96566e-05
7.29742e-05
7.27846e-05
6.8447e-05
6.1927e-05
5.2629e-05
4.35705e-05
4.13587e-05
4.63557e-05
5.55401e-05
6.56027e-05
7.25897e-05
7.44207e-05
7.52152e-05
8.11475e-05
7.80106e-05
6.34418e-05
5.2344e-05
4.51758e-05
4.21561e-05
4.30481e-05
4.64887e-05
5.10881e-05
5.73079e-05
6.48863e-05
7.14008e-05
7.15291e-05
4.41294e-05
1.09287e-05
8.24791e-07
7.02426e-07
7.83934e-06
2.2654e-05
4.80204e-05
6.43563e-05
7.18803e-05
7.4789e-05
7.33812e-05
6.63707e-05
5.03311e-05
3.50383e-05
2.98279e-05
3.48978e-05
4.93216e-05
6.75621e-05
8.33134e-05
9.18125e-05
9.47014e-05
9.916e-05
9.19053e-05
7.82804e-05
7.02098e-05
6.02403e-05
5.14595e-05
4.65285e-05
4.56221e-05
4.78177e-05
5.26142e-05
5.92407e-05
6.7046e-05
7.34705e-05
7.16922e-05
4.29355e-05
1.05441e-05
7.8529e-07
7.59275e-07
8.17218e-06
2.39674e-05
5.03458e-05
6.58947e-05
7.04527e-05
6.79816e-05
6.12758e-05
5.18236e-05
4.06994e-05
3.06468e-05
2.66405e-05
3.12291e-05
4.7558e-05
7.43077e-05
9.57062e-05
0.000103013
0.000102728
0.000107385
9.47339e-05
7.57825e-05
6.69498e-05
5.87048e-05
5.15269e-05
4.7068e-05
4.57634e-05
4.72533e-05
5.11051e-05
5.70085e-05
6.45318e-05
7.20984e-05
7.07242e-05
3.64698e-05
9.44912e-06
6.14246e-07
7.23243e-07
8.26416e-06
2.5792e-05
5.31359e-05
6.45519e-05
6.68482e-05
6.73662e-05
6.53878e-05
5.81159e-05
4.56957e-05
3.37453e-05
2.64836e-05
2.41361e-05
2.83697e-05
4.50576e-05
6.89256e-05
9.17782e-05
0.000109389
0.000104321
8.91774e-05
8.30116e-05
7.4663e-05
6.33805e-05
5.35609e-05
4.78881e-05
4.62228e-05
4.74935e-05
5.0977e-05
5.6557e-05
6.43336e-05
7.26351e-05
7.05956e-05
3.47787e-05
9.07355e-06
5.47192e-07
6.45363e-07
7.98435e-06
2.41431e-05
5.05663e-05
6.41775e-05
6.82417e-05
6.8169e-05
6.53417e-05
6.02358e-05
5.47256e-05
4.69003e-05
3.39972e-05
2.35503e-05
2.03991e-05
2.52898e-05
4.35798e-05
7.51849e-05
0.000100509
0.000103035
0.00010351
9.79905e-05
8.62035e-05
7.28091e-05
6.0719e-05
5.20936e-05
4.79027e-05
4.76217e-05
5.04261e-05
5.61984e-05
6.48248e-05
7.37852e-05
7.11945e-05
3.48245e-05
9.24042e-06
5.48902e-07
6.41388e-07
7.91456e-06
2.39051e-05
5.05905e-05
6.52669e-05
6.97805e-05
7.01684e-05
6.82611e-05
6.4317e-05
5.83008e-05
5.11122e-05
4.07697e-05
2.89513e-05
2.20612e-05
2.1822e-05
3.05167e-05
5.3985e-05
8.37683e-05
9.81251e-05
0.000109099
0.000109297
9.7771e-05
8.13784e-05
6.64931e-05
5.59204e-05
4.96839e-05
4.76026e-05
4.93513e-05
5.48253e-05
6.39578e-05
7.38503e-05
7.22178e-05
3.55394e-05
9.37839e-06
5.69289e-07
6.15779e-07
7.7709e-06
2.35292e-05
4.92861e-05
6.39735e-05
6.91717e-05
7.08471e-05
7.05156e-05
6.83381e-05
6.34475e-05
5.51506e-05
4.49062e-05
3.50335e-05
2.71265e-05
2.3171e-05
2.40927e-05
3.43026e-05
5.28934e-05
6.86221e-05
8.86743e-05
9.91735e-05
9.5809e-05
8.37436e-05
6.99901e-05
5.83623e-05
5.10067e-05
4.75605e-05
4.77157e-05
5.19978e-05
6.10659e-05
7.24922e-05
7.2541e-05
3.63466e-05
9.50347e-06
5.84212e-07
5.34379e-07
7.47995e-06
2.24248e-05
4.70849e-05
6.27836e-05
6.8875e-05
7.09327e-05
7.0884e-05
6.9473e-05
6.65695e-05
6.35203e-05
5.99941e-05
5.24059e-05
4.09835e-05
3.01287e-05
2.34703e-05
2.16959e-05
2.48503e-05
3.57536e-05
5.49291e-05
7.45933e-05
8.4183e-05
8.04205e-05
6.92944e-05
5.8851e-05
5.15417e-05
4.73643e-05
4.7292e-05
5.14058e-05
6.0244e-05
7.21365e-05
7.34852e-05
3.77037e-05
9.76248e-06
6.11701e-07
4.51569e-07
6.99391e-06
2.04916e-05
4.49938e-05
6.30994e-05
7.04974e-05
7.26732e-05
7.2148e-05
7.06571e-05
6.98113e-05
6.95112e-05
6.8344e-05
6.51227e-05
5.85127e-05
4.75789e-05
3.48958e-05
2.47811e-05
1.93545e-05
1.96308e-05
2.81917e-05
4.47837e-05
6.0262e-05
7.17775e-05
7.03438e-05
6.18818e-05
5.30225e-05
4.78019e-05
4.64283e-05
5.01438e-05
6.01421e-05
7.26796e-05
7.40575e-05
3.94141e-05
1.01595e-05
6.6128e-07
4.43514e-07
6.92957e-06
2.00016e-05
4.40943e-05
6.31486e-05
7.13216e-05
7.46153e-05
7.5773e-05
7.60266e-05
7.5261e-05
7.35619e-05
7.13339e-05
6.93781e-05
6.73315e-05
6.30136e-05
5.32255e-05
3.84341e-05
2.5118e-05
1.72933e-05
1.80462e-05
2.64393e-05
3.76751e-05
5.32536e-05
6.19721e-05
6.00571e-05
5.40522e-05
4.88938e-05
4.73085e-05
5.10723e-05
6.09511e-05
7.29294e-05
7.41163e-05
3.98014e-05
1.03947e-05
7.05643e-07
4.44156e-07
6.75441e-06
1.93978e-05
4.25878e-05
6.18439e-05
7.17241e-05
7.68887e-05
7.96737e-05
8.1197e-05
8.16978e-05
8.12446e-05
7.9809e-05
7.73461e-05
7.39067e-05
6.90044e-05
6.08445e-05
4.79365e-05
3.28997e-05
2.1603e-05
1.62184e-05
1.82828e-05
2.72226e-05
3.8266e-05
5.01758e-05
5.42774e-05
5.18821e-05
4.88677e-05
4.88633e-05
5.36412e-05
6.43444e-05
7.58525e-05
7.42864e-05
4.01633e-05
1.04255e-05
7.12872e-07
4.58526e-07
6.80122e-06
1.92962e-05
4.2054e-05
6.18267e-05
7.23837e-05
7.84123e-05
8.22257e-05
8.44389e-05
8.54662e-05
8.56512e-05
8.50497e-05
8.35937e-05
8.11239e-05
7.69257e-05
6.91065e-05
5.55414e-05
3.83429e-05
2.41537e-05
1.68066e-05
1.62453e-05
2.06827e-05
2.90985e-05
4.10271e-05
4.81388e-05
4.94523e-05
4.87256e-05
5.00713e-05
5.68438e-05
6.83352e-05
7.66431e-05
7.32694e-05
3.95744e-05
1.04235e-05
7.02294e-07
4.60867e-07
6.72183e-06
1.89836e-05
4.12492e-05
6.10403e-05
7.22158e-05
7.89327e-05
8.32347e-05
8.56633e-05
8.71394e-05
8.79035e-05
8.79225e-05
8.70652e-05
8.52015e-05
8.19426e-05
7.64274e-05
6.51599e-05
4.54973e-05
2.77382e-05
1.9213e-05
1.5605e-05
1.66731e-05
2.45291e-05
3.58409e-05
4.33824e-05
4.64434e-05
4.83304e-05
5.19004e-05
5.86551e-05
6.80558e-05
7.55937e-05
7.22215e-05
3.86781e-05
1.0272e-05
6.71798e-07
4.55419e-07
6.65157e-06
1.85812e-05
4.03972e-05
6.07289e-05
7.269e-05
7.99546e-05
8.44645e-05
8.75138e-05
8.9433e-05
9.04514e-05
9.06422e-05
8.98725e-05
8.79004e-05
8.47865e-05
7.96482e-05
7.11639e-05
5.75827e-05
3.70666e-05
2.15842e-05
1.68837e-05
1.63621e-05
1.90974e-05
2.81439e-05
3.75082e-05
4.30243e-05
4.63629e-05
5.08791e-05
5.83537e-05
6.78164e-05
7.50275e-05
7.11728e-05
3.70884e-05
9.94117e-06
6.16503e-07
4.23971e-07
6.43303e-06
1.77234e-05
3.87457e-05
5.95348e-05
7.20953e-05
7.97269e-05
8.47772e-05
8.7908e-05
8.99198e-05
9.10842e-05
9.15294e-05
9.12435e-05
9.00903e-05
8.80183e-05
8.4469e-05
7.81195e-05
6.72863e-05
5.18971e-05
3.2103e-05
2.12785e-05
1.51604e-05
1.49504e-05
2.27814e-05
3.34652e-05
4.08116e-05
4.52375e-05
5.018e-05
5.73075e-05
6.59056e-05
7.23237e-05
6.85879e-05
3.61025e-05
9.86822e-06
5.7543e-07
3.82572e-07
6.1738e-06
1.68226e-05
3.7174e-05
5.85059e-05
7.16324e-05
7.92969e-05
8.41224e-05
8.74171e-05
8.9942e-05
9.16993e-05
9.25273e-05
9.22053e-05
9.09834e-05
8.915e-05
8.68884e-05
8.38592e-05
7.84018e-05
6.76927e-05
5.32652e-05
3.42003e-05
2.15101e-05
1.50906e-05
1.54465e-05
2.32451e-05
3.39668e-05
4.15285e-05
4.66341e-05
5.31628e-05
6.15932e-05
6.94072e-05
6.83569e-05
3.74399e-05
9.99495e-06
5.7929e-07
3.46948e-07
5.94071e-06
1.60311e-05
3.57448e-05
5.76943e-05
7.14545e-05
7.9329e-05
8.4079e-05
8.71737e-05
8.93061e-05
9.13303e-05
9.2904e-05
9.38917e-05
9.40549e-05
9.31227e-05
9.10177e-05
8.83598e-05
8.52886e-05
7.97502e-05
6.70999e-05
5.04043e-05
3.64469e-05
2.12761e-05
1.5186e-05
1.68003e-05
2.33519e-05
3.35288e-05
4.22996e-05
4.89459e-05
5.70913e-05
6.65142e-05
6.86777e-05
3.9423e-05
1.03737e-05
6.16962e-07
3.02662e-07
5.59639e-06
1.51647e-05
3.48295e-05
5.66539e-05
7.01087e-05
7.76956e-05
8.23918e-05
8.51852e-05
8.79461e-05
9.03231e-05
9.22291e-05
9.34942e-05
9.40487e-05
9.40197e-05
9.34218e-05
9.16493e-05
8.84948e-05
8.40359e-05
7.90923e-05
7.10854e-05
5.54924e-05
3.76925e-05
2.4407e-05
1.68868e-05
1.60389e-05
2.09656e-05
3.11246e-05
4.08713e-05
4.9724e-05
6.05129e-05
6.51108e-05
3.92787e-05
1.0373e-05
6.35136e-07
2.83926e-07
5.46479e-06
1.46803e-05
3.38322e-05
5.6013e-05
6.90646e-05
7.5794e-05
7.94505e-05
8.21531e-05
8.50111e-05
8.76811e-05
9.03771e-05
9.25394e-05
9.33755e-05
9.40698e-05
9.43798e-05
9.37123e-05
9.15802e-05
8.78417e-05
8.32989e-05
7.64198e-05
6.53512e-05
5.28133e-05
4.56831e-05
3.24335e-05
1.98259e-05
1.65429e-05
1.84922e-05
2.66998e-05
3.86212e-05
5.03286e-05
5.93242e-05
4.01547e-05
1.09449e-05
7.41023e-07
2.92585e-07
5.37896e-06
1.50021e-05
3.49295e-05
5.65509e-05
6.84338e-05
7.41237e-05
7.71407e-05
8.00685e-05
8.28176e-05
8.64612e-05
9.0523e-05
9.36817e-05
9.58725e-05
9.71948e-05
9.78207e-05
9.72821e-05
9.47183e-05
8.99316e-05
8.50263e-05
7.94761e-05
7.03328e-05
5.99335e-05
6.45421e-05
6.37712e-05
4.48805e-05
3.01217e-05
2.09814e-05
1.8955e-05
2.40286e-05
3.69961e-05
4.3601e-05
4.69267e-05
1.26839e-05
1.15877e-06
3.55212e-07
5.73444e-06
1.6049e-05
3.68174e-05
5.74476e-05
6.75931e-05
7.2569e-05
7.45419e-05
7.62791e-05
8.11082e-05
8.8041e-05
9.43055e-05
9.93802e-05
0.000104259
0.000107864
0.000109173
0.0001087
0.000104955
9.61105e-05
8.58352e-05
7.75857e-05
7.03927e-05
6.48776e-05
8.06573e-05
9.82431e-05
7.51505e-05
5.12374e-05
3.19608e-05
2.06122e-05
1.83713e-05
2.48164e-05
4.4997e-05
5.03607e-05
1.20883e-05
1.43963e-06
4.69249e-07
6.34365e-06
1.78251e-05
3.96498e-05
5.83604e-05
6.67522e-05
6.88305e-05
7.13234e-05
7.80611e-05
8.57327e-05
9.34031e-05
0.000101562
0.000109792
0.000116648
0.000122154
0.000125889
0.000127143
0.000122322
0.00010863
9.16498e-05
7.63473e-05
6.36523e-05
7.04638e-05
7.83164e-05
6.40526e-05
5.2223e-05
3.99102e-05
2.86561e-05
2.32239e-05
2.86634e-05
5.05001e-05
6.71258e-05
4.4243e-05
1.16713e-05
1.41095e-06
5.85895e-07
7.07428e-06
1.98439e-05
4.31873e-05
5.93215e-05
6.5832e-05
6.76084e-05
6.71271e-05
7.00633e-05
7.92275e-05
9.27987e-05
0.000107097
0.00011954
0.000129225
0.000136089
0.000139769
0.000136839
0.000119371
8.79341e-05
6.40955e-05
5.65503e-05
5.46303e-05
5.4441e-05
5.12439e-05
4.65098e-05
4.35866e-05
3.99416e-05
3.79514e-05
4.01468e-05
4.74411e-05
5.88667e-05
5.84715e-05
2.91128e-05
9.19642e-06
8.11062e-07
6.51755e-07
7.4032e-06
2.127e-05
4.54481e-05
6.00231e-05
6.12234e-05
5.72284e-05
5.61599e-05
6.22134e-05
7.47725e-05
9.03767e-05
0.000105207
0.000117082
0.000125012
0.000128253
0.000126155
0.000115933
9.46413e-05
6.85435e-05
5.14788e-05
5.09564e-05
4.42546e-05
3.89297e-05
4.31615e-05
4.42169e-05
4.29542e-05
4.23687e-05
4.33349e-05
5.07568e-05
6.38134e-05
6.44236e-05
5.22989e-05
2.32569e-05
7.69718e-06
4.46673e-07