/*--------------------------------*- C++ -*----------------------------------*\
| =========                 |                                                 |
| \\      /  F ield         | OpenFOAM: The Open Source CFD Toolbox           |
|  \\    /   O peration     | Version:  2.0.x                                 |
|   \\  /    A nd           | Web:      www.OpenFOAM.org                      |
|    \\/     M anipulation  |                                                 |
\*---------------------------------------------------------------------------*/
FoamFile
{
    version     2.0;
    format      ascii;
    class       volScalarField;
    location    "450";
    object      omega;
}
// * * * * * * * * * * * * * * * * * * * * * * * * * * * * * * * * * * * * * //

dimensions      [0 0 -1 0 0 0 0];

internalField   nonuniform List<scalar> 
78750
(
1021.98
6.17714
6.66034
6.82907
6.96003
7.11642
7.26693
7.38803
7.49224
7.5822
7.65912
7.72394
7.77834
7.82152
7.85532
7.88107
7.89894
7.91018
7.91239
7.92534
7.94205
7.94623
7.94071
7.92505
7.90146
7.87178
7.83578
7.79473
7.75113
7.70316
7.64955
7.5853
7.50643
7.19751
1091.89
1021.84
5.29718
5.72953
6.09525
6.52814
6.95036
7.3106
7.61196
7.85729
8.05768
8.22051
8.34961
8.44953
8.52421
8.57716
8.61028
8.62598
8.62531
8.61255
8.56853
8.50779
8.44254
8.37494
8.30861
8.24132
8.17584
8.11198
8.03733
7.95905
7.87514
7.78058
7.67244
7.50917
7.1467
1093.27
1021.57
5.01211
5.80709
6.55916
7.20855
7.71258
8.07108
8.32673
8.51465
8.65247
8.75088
8.81683
8.85538
8.86851
8.8644
8.84105
8.80166
8.7477
8.68
8.6023
8.51695
8.42667
8.33097
8.22616
8.12152
8.018
7.91542
7.83368
7.77206
7.72639
7.68502
7.61597
7.45492
7.1534
1094.04
1021.63
5.65594
6.73112
7.48274
7.96536
8.2686
8.47322
8.62613
8.74513
8.83869
8.91071
8.96283
8.99553
9.00879
9.0052
8.9826
8.9413
8.88234
8.80716
8.71702
8.61202
8.49101
8.35412
8.20871
8.06028
7.90351
7.75257
7.62743
7.53396
7.4812
7.464
7.43715
7.32487
7.10039
1094.08
1021.78
5.83803
6.88614
7.57672
8.03462
8.36065
8.60613
8.79832
8.95067
9.06917
9.15713
9.21689
9.25031
9.25866
9.24776
9.21327
9.15761
9.0816
8.98613
8.87345
8.74555
8.6026
8.44379
8.26834
8.08265
7.89504
7.70346
7.52523
7.38296
7.2916
7.26888
7.27038
7.21878
7.04129
1094.01
1021.98
6.17825
7.23478
7.9118
8.34377
8.62983
8.84027
9.00302
9.12982
9.22696
9.29831
9.34632
9.37242
9.37742
9.36496
9.33221
9.28105
9.21193
9.12495
9.02052
8.89995
8.76147
8.60244
8.42243
8.22936
8.03166
7.8216
7.60028
7.39265
7.22686
7.1363
7.12242
7.09296
6.94135
1093.85
1022.09
6.22211
7.27641
7.95157
8.39387
8.70437
8.94031
9.12702
9.27545
9.39141
9.47847
9.53907
9.57492
9.58722
9.57991
9.55111
9.50193
9.43278
9.34403
9.23676
9.11289
8.97549
8.82273
8.65204
8.46303
8.26328
8.05798
7.833
7.58539
7.339
7.14716
7.05702
7.00556
6.86959
1093.86
1022.23
6.41911
7.50144
8.17504
8.6029
8.90163
9.1283
9.30438
9.44066
9.54449
9.62042
9.67144
9.6993
9.70494
9.69366
9.66132
9.60955
9.53828
9.44754
9.33812
9.21144
9.06994
8.91273
8.73789
8.54595
8.34422
8.13642
7.90836
7.65866
7.40711
7.17535
7.03001
6.95447
6.83515
1093.93
1022.34
6.51565
7.61967
8.30972
8.74646
9.04983
9.28029
9.46026
9.60291
9.71288
9.79359
9.84837
9.87841
9.88481
9.87286
9.83727
9.78038
9.70363
9.60842
9.49595
9.36736
9.22449
9.06667
8.89133
8.69809
8.49297
8.27919
8.04258
7.78019
7.5067
7.23507
7.04285
6.93012
6.81211
1093.95
1022.48
6.69903
7.8402
8.52387
8.94367
9.23378
9.44906
9.61903
9.7541
9.85772
9.93192
9.97812
9.9978
9.99545
9.97253
9.92956
9.86781
9.78857
9.69242
9.57961
9.45058
9.30693
9.14775
8.97129
8.77818
8.57329
8.35804
8.12019
7.8561
7.58355
7.3001
7.06022
6.92907
6.81611
1094.08
1022.67
6.88581
8.03384
8.7082
9.11458
9.38768
9.59606
9.76419
9.89853
10.0022
10.0772
10.1254
10.1478
10.1462
10.1225
10.0772
10.0128
9.93102
9.83261
9.71785
9.58602
9.43793
9.27191
9.08612
8.8814
8.66267
8.43083
8.1739
7.9031
7.63327
7.35873
7.10615
6.94806
6.84446
1094.18
1022.86
7.06404
8.20972
8.86213
9.24677
9.51063
9.71347
9.87595
10.0039
10.1006
10.1683
10.2092
10.2253
10.221
10.196
10.1527
10.0929
10.0175
9.92589
9.81738
9.69169
9.54747
9.38079
9.1888
8.97023
8.72633
8.46088
8.17347
7.88199
7.60753
7.34828
7.11987
6.97426
6.8751
1094.17
1023.12
7.2562
8.36924
8.99371
9.36566
9.62294
9.82154
9.97933
10.1026
10.1949
10.2587
10.2957
10.3069
10.2967
10.2635
10.2118
10.1449
10.0655
9.97488
9.87248
9.75776
9.62639
9.47429
9.29736
9.09028
8.84631
8.55631
8.21744
7.87772
7.56743
7.30213
7.10533
6.98152
6.87009
1094.03
1023.28
7.33753
8.43116
9.05064
9.42248
9.68041
9.87833
10.0338
10.1539
10.2424
10.302
10.3345
10.3408
10.325
10.2871
10.2318
10.1634
10.0856
10.0009
9.91004
9.81023
9.69665
9.56525
9.41143
9.22927
9.01025
8.73912
8.40397
8.01413
7.61741
7.30397
7.09903
6.97715
6.85152
1093.92
1023.35
7.37557
8.4706
9.09941
9.47713
9.73902
9.93871
10.0943
10.2139
10.3018
10.3605
10.3915
10.397
10.3792
10.3392
10.2802
10.2058
10.1205
10.0295
9.93752
9.84292
9.74175
9.62824
9.49656
9.34084
9.15375
8.92094
8.62547
8.25445
7.80371
7.38003
7.1116
6.97892
6.83769
1093.83
1023.35
7.3714
8.47165
9.11569
9.50605
9.77767
9.98364
10.1433
10.2656
10.356
10.4178
10.4537
10.4652
10.4535
10.4197
10.3653
10.2926
10.2047
10.1053
9.99931
9.88883
9.7781
9.66672
9.54608
9.40742
9.24051
9.02814
8.75322
8.39694
7.94271
7.48356
7.15963
6.98541
6.81595
1093.76
1023.24
7.3125
8.44504
9.11988
9.53502
9.82294
10.0415
10.2112
10.3415
10.4377
10.5033
10.5417
10.555
10.545
10.5129
10.4594
10.3861
10.2953
10.1898
10.075
9.95242
9.82375
9.69313
9.56043
9.41801
9.25357
9.04899
8.7872
8.4475
8.00783
7.54964
7.20737
7.00859
6.81853
1093.77
1023.1
7.24656
8.42104
9.12101
9.55424
9.85698
10.0891
10.2719
10.4148
10.5239
10.6029
10.6551
10.6831
10.6884
10.6741
10.6373
10.5785
10.4969
10.3911
10.2645
10.1211
9.96544
9.80385
9.64055
9.47334
9.29279
9.08842
8.84288
8.52174
8.0973
7.63582
7.26287
7.03556
6.83353
1093.87
1023.06
7.23964
8.42338
9.15646
9.61165
9.92833
10.1705
10.3612
10.5111
10.6259
10.7096
10.7652
10.7966
10.8069
10.8006
10.7766
10.7337
10.6688
10.5827
10.4753
10.3435
10.1838
9.99871
9.79758
9.58924
9.37726
9.16261
8.92467
8.62005
8.21423
7.75494
7.35622
7.09965
6.89444
1094.1
1023.08
7.27725
8.49529
9.23655
9.69428
10.0138
10.2604
10.456
10.61
10.7278
10.813
10.8682
10.8967
10.9023
10.8922
10.8649
10.8243
10.7757
10.7175
10.6441
10.5465
10.4154
10.2467
10.0417
9.81073
9.5784
9.34803
9.08978
8.76616
8.35181
7.86949
7.44924
7.17388
6.97409
1094.33
1023.21
7.3828
8.59903
9.33154
9.78549
10.106
10.3555
10.555
10.7132
10.8348
10.9226
10.9785
11.0047
11.0056
10.9896
10.9589
10.9228
10.8841
10.8415
10.7904
10.719
10.6153
10.4704
10.2796
10.0591
9.83528
9.59815
9.32056
8.97792
8.54319
8.02766
7.56824
7.27585
7.07855
1094.54
1023.37
7.48602
8.69
9.41239
9.86091
10.1799
10.4299
10.6315
10.7934
10.9199
11.0129
11.0731
11.1015
11.1011
11.0773
11.0354
10.9857
10.9374
10.8955
10.8575
10.8083
10.7327
10.6204
10.4669
10.2838
10.0851
9.85672
9.57657
9.22116
8.76134
8.20966
7.69489
7.38016
7.17767
1094.65
1023.51
7.57693
8.76814
9.48012
9.92276
10.2394
10.4888
10.6919
10.8578
10.9904
11.0908
11.1575
11.1892
11.187
11.1543
11.0983
11.0322
10.9706
10.924
10.8911
10.8559
10.8017
10.7161
10.5972
10.4512
10.2823
10.0751
9.80761
9.45358
8.98264
8.40841
7.85343
7.50685
7.27553
1094.67
1023.6
7.63278
8.81471
9.52329
9.96344
10.2776
10.5246
10.7275
10.8969
11.037
11.1475
11.2249
11.2663
11.269
11.2365
11.1708
11.0874
11.0052
10.942
10.9008
10.8686
10.8303
10.7722
10.6845
10.5679
10.4167
10.2183
9.95479
9.59779
9.12117
8.54814
7.98832
7.62624
7.35187
1094.58
1023.62
7.6666
8.85438
9.56368
10.0006
10.3104
10.5535
10.7544
10.9255
11.0726
11.1962
11.2929
11.3563
11.3785
11.3555
11.2885
11.1882
11.0749
10.9746
10.903
10.8586
10.824
10.7833
10.7215
10.6285
10.494
10.304
10.0397
9.6761
9.19848
8.63929
8.09867
7.7284
7.40514
1094.46
1023.57
7.67155
8.87892
9.59462
10.031
10.3365
10.574
10.7704
10.9407
11.0943
11.2344
11.3576
11.4549
11.5132
11.5217
11.4793
11.3853
11.2541
11.1089
10.9754
10.8747
10.811
10.7676
10.7218
10.6519
10.538
10.3615
10.1021
9.73688
9.25977
8.71104
8.18686
7.81223
7.45957
1094.47
1023.51
7.68881
8.9228
9.64282
10.0757
10.3749
10.6047
10.7936
10.959
11.1139
11.2645
11.4111
11.543
11.6427
11.694
11.6882
11.6236
11.5046
11.3465
11.1695
11.0031
10.8753
10.7954
10.7436
10.6866
10.5942
10.4409
10.201
9.84747
9.37185
8.81485
8.28195
7.89699
7.53153
1094.6
1023.53
7.75437
9.00855
9.71854
10.139
10.4258
10.6439
10.8217
10.9782
11.1315
11.2906
11.4587
11.6245
11.7644
11.8574
11.8904
11.8634
11.772
11.6257
11.4349
11.2229
11.0271
10.8843
10.7973
10.733
10.6549
10.5288
10.3208
9.99586
9.53494
8.96496
8.4043
7.99699
7.62272
1094.81
1023.67
7.89079
9.14156
9.82223
10.2188
10.4874
10.6902
10.8552
10.9988
11.1433
11.3099
11.5033
11.7036
11.8791
12.0084
12.0799
12.0851
12.0323
11.9119
11.7316
11.5049
11.2637
11.055
10.9073
10.8022
10.7085
10.5892
10.4043
10.1122
9.68056
9.11836
8.54468
8.11523
7.72283
1094.96
1023.94
8.07534
9.28719
9.92479
10.2907
10.5373
10.7224
10.8675
11.0022
11.1436
11.312
11.5136
11.7313
11.941
12.1092
12.2169
12.2568
12.2353
12.147
11.9909
11.7742
11.5219
11.2782
11.08
10.9248
10.7947
10.6581
10.474
10.1986
9.7897
9.24696
8.68165
8.23709
7.81346
1095
1024.27
8.24427
9.4031
10.0001
10.3377
10.5638
10.7306
10.8621
10.9747
11.0988
11.2665
11.4855
11.7257
11.9446
12.1229
12.2527
12.3354
12.3578
12.3075
12.1819
11.9886
11.7465
11.4912
11.2567
11.0541
10.8803
10.7136
10.5173
10.2489
9.85966
9.34546
8.80674
8.35479
7.89255
1094.98
1024.45
8.32218
9.45527
10.0341
10.3571
10.569
10.7189
10.8253
10.9117
11.0064
11.1452
11.3491
11.6004
11.8516
12.0662
12.2298
12.3383
12.3922
12.3898
12.3202
12.1744
11.9699
11.7291
11.4765
11.2311
11.0043
10.7901
10.5633
10.2848
9.90627
9.41978
8.91006
8.45725
7.95954
1094.93
1024.45
8.32666
9.46936
10.0522
10.3716
10.5759
10.7199
10.8198
10.8833
10.9458
11.0397
11.1925
11.4086
11.6601
11.8984
12.0988
12.2527
12.353
12.3926
12.3684
12.2817
12.1319
11.9308
11.6923
11.4339
11.1728
10.915
10.6498
10.3466
9.96453
9.49462
9.00711
8.556
8.03198
1094.94
1024.36
8.3192
9.47798
10.0681
10.3932
10.5989
10.7332
10.8184
10.8707
10.9017
10.9593
11.0846
11.2806
11.5158
11.7551
11.9667
12.1386
12.2652
12.3414
12.3615
12.3211
12.2206
12.0654
11.8599
11.6146
11.3445
11.0606
10.7632
10.4309
10.0339
9.56799
9.09407
8.64506
8.10383
1094.99
1024.3
8.31461
9.48512
10.0858
10.418
10.6283
10.7644
10.8425
10.8772
10.8982
10.9362
11.0425
11.2341
11.4784
11.7211
11.9346
12.1056
12.2325
12.315
12.3508
12.3374
12.2738
12.1593
11.9903
11.7702
11.5092
11.2183
10.9025
10.5465
10.1304
9.65852
9.1881
8.73546
8.1779
1095.07
1024.31
8.33477
9.51691
10.1203
10.4532
10.6636
10.7998
10.8767
10.9036
10.9048
10.931
11.0366
11.2308
11.4784
11.7235
11.9389
12.1096
12.2353
12.3191
12.3619
12.3626
12.3229
12.2357
12.095
11.8993
11.6538
11.3671
11.043
10.6706
10.2382
9.75883
9.28833
8.82852
8.25267
1095.16
1024.48
8.42126
9.58516
10.1747
10.5006
10.7061
10.8359
10.9032
10.9159
10.897
10.9004
10.9968
11.2191
11.5045
11.7826
12.0155
12.1887
12.3094
12.385
12.4228
12.4243
12.391
12.3153
12.1903
12.0131
11.7842
11.5085
11.1853
10.8046
10.3599
9.8722
9.39666
8.92276
8.32065
1095.21
1024.81
8.54747
9.66121
10.2271
10.5444
10.7472
10.8739
10.9347
10.936
10.8971
10.8529
10.9163
11.1458
11.467
11.7806
12.0355
12.226
12.3618
12.4521
12.4988
12.5046
12.4729
12.399
12.2779
12.1072
11.8869
11.6205
11.3022
10.9224
10.4769
9.99059
9.51423
9.02466
8.38603
1095.22
1025.18
8.61458
9.68931
10.2487
10.5675
10.7735
10.9016
10.9621
10.9612
10.9108
10.8528
10.8497
10.9695
11.2682
11.5988
11.902
12.1435
12.3234
12.4487
12.5243
12.5529
12.5386
12.4767
12.3628
12.198
11.9848
11.7252
11.4111
11.032
10.5862
10.1018
9.62449
9.11875
8.43906
1095.17
1025.32
8.62125
9.6908
10.2505
10.5716
10.7831
10.9239
10.9973
11.0079
10.9685
10.8944
10.8406
10.8387
10.923
11.1472
11.4749
11.7762
12.0328
12.2392
12.3888
12.4802
12.5117
12.4811
12.3946
12.2507
12.0495
11.7979
11.4922
11.1223
10.687
10.2133
9.73949
9.21866
8.49191
1095.08
1025.24
8.51701
9.61641
10.2013
10.5417
10.7711
10.9299
11.0321
11.0733
11.0779
11.0381
10.9657
10.8869
10.8529
10.8552
10.9213
11.1076
11.3746
11.6879
11.9667
12.1885
12.342
12.4056
12.3719
12.2531
12.0837
11.8581
11.564
11.2012
10.7733
10.3085
9.83977
9.31183
8.55201
1095.04
1024.64
8.2683
9.45735
10.101
10.4747
10.7252
10.9047
11.0336
11.1187
11.1671
11.1867
11.1875
11.1553
11.0886
11.0039
10.9268
10.8797
10.8724
10.9346
11.1531
11.4805
11.8166
12.0779
12.2075
12.2009
12.0732
11.8697
11.6085
11.2666
10.8564
10.4068
9.94552
9.41062
8.6187
1095.07
1023.83
7.95575
9.25163
9.9801
10.4058
10.6883
10.8901
11.0283
11.122
11.188
11.2363
11.2813
11.332
11.38
11.4009
11.3659
11.2639
11.1156
10.9561
10.8391
10.8386
11.0258
11.3609
11.7129
11.9284
11.966
11.8555
11.6175
11.3053
10.9157
10.4854
10.0395
9.51593
8.72391
1095.27
1023.24
7.69879
9.12464
9.94108
10.3942
10.6859
10.8933
11.0468
11.1546
11.2244
11.2665
11.3049
11.3674
11.471
11.6015
11.7146
11.7542
11.7155
11.5707
11.3259
11.0666
10.9364
10.9585
11.1691
11.4466
11.6603
11.7126
11.6056
11.337
10.9868
10.5789
10.1432
9.62267
8.8328
1095.68
1023.18
7.68022
9.1188
9.95564
10.4464
10.7569
10.9724
11.1242
11.225
11.2911
11.329
11.3754
11.4763
11.6631
11.9093
12.1432
12.294
12.3035
12.2241
11.959
11.576
11.2267
11.0145
11.0113
11.1369
11.3606
11.5074
11.5022
11.3248
11.0187
10.647
10.24
9.75287
9.02012
1096.34
1023.5
7.98577
9.43331
10.21
10.6453
10.9164
11.0995
11.223
11.2873
11.3134
11.3386
11.4136
11.6386
12.061
12.5701
13.022
13.3371
13.4763
13.4135
13.0361
12.4721
11.8848
11.3554
11.0668
11.0535
11.1634
11.3313
11.3988
11.3118
11.0647
10.7234
10.3268
9.84333
9.14571
1096.9
1024.57
8.56343
9.80958
10.4315
10.7824
11.0125
11.1692
11.2556
11.2963
11.3006
11.324
11.4772
11.963
12.6998
13.4
13.88
14.1138
14.1378
14.0175
13.7449
13.3374
12.7883
12.1243
11.5087
11.1834
11.197
11.3273
11.3749
11.2954
11.08
10.7761
10.4132
9.96313
9.29557
1097.08
1026.28
9.02976
9.99695
10.5214
10.8401
11.0558
11.1927
11.2543
11.2443
11.1934
11.22
11.5029
12.1675
13.0017
13.6497
14.0356
14.1668
14.1542
14.0092
13.7595
13.4017
12.9537
12.4576
11.984
11.6476
11.4952
11.4618
11.4402
11.329
11.1153
10.8167
10.4556
9.98944
9.28327
1096.8
1026.77
9.05962
10.0065
10.5269
10.8436
11.0587
11.1938
11.241
11.2204
11.1303
11.0449
11.1681
11.7412
12.5962
13.2415
13.6623
13.901
13.9593
13.9066
13.7426
13.4695
13.1087
12.7078
12.3173
12.004
11.799
11.672
11.5543
11.3811
11.1345
10.8246
10.4609
9.97932
9.17598
1095.57
1026.58
8.96141
9.90667
10.4218
10.7505
10.9924
11.1637
11.2466
11.2513
11.1752
11.0267
10.8689
10.8153
11.0464
11.8804
12.6276
13.1507
13.4626
13.581
13.5842
13.4506
13.2218
12.9159
12.5761
12.2671
12.028
11.8464
11.6742
11.4623
11.1925
10.8692
10.4932
9.97694
9.05097
1095.06
1025.99
8.77616
9.76202
10.3268
10.6863
10.9502
11.1458
11.2763
11.3291
11.3192
11.2186
11.0289
10.8105
10.7656
10.9536
11.5999
12.2373
12.7116
13.0497
13.2515
13.3039
13.2241
13.0448
12.7797
12.4835
12.2113
11.981
11.7649
11.5217
11.2333
10.9025
10.5227
9.99404
9.05479
1095.08
1025.96
8.73837
9.73256
10.2945
10.6571
10.9289
11.1355
11.2809
11.34
11.3378
11.2658
11.1212
10.9096
10.765
10.7929
11.1576
11.6809
12.1775
12.5822
12.8783
13.0547
13.1069
13.0344
12.876
12.6453
12.3768
12.1151
11.867
11.6027
11.3008
10.9616
10.5756
10.0413
9.08934
1095.22
1025.81
8.59424
9.61121
10.2043
10.5948
10.893
11.1257
11.2971
11.4093
11.4406
11.4034
11.2841
11.0856
10.8388
10.7221
10.7231
11.0118
11.4783
11.9446
12.3541
12.6486
12.8323
12.9016
12.8436
12.674
12.4624
12.2163
11.9453
11.654
11.3405
10.9976
10.6131
10.0835
9.13582
1095.33
1025.29
8.4085
9.47001
10.086
10.492
10.8055
11.0598
11.26
11.4138
11.5167
11.5508
11.5296
11.4318
11.2445
10.9673
10.7033
10.5999
10.6638
11.043
11.5181
11.9276
12.2613
12.4947
12.6082
12.5944
12.4485
12.2332
11.991
11.7074
11.3836
11.0337
10.6506
10.1322
9.20171
1095.51
1024.69
8.1806
9.29271
9.95411
10.3909
10.7292
11.0094
11.2407
11.4094
11.5279
11.6054
11.6313
11.6158
11.5446
11.4002
11.1562
10.8336
10.565
10.4939
10.7172
11.1578
11.5717
11.8974
12.1481
12.3006
12.3202
12.2112
11.9864
11.7228
11.4167
11.0748
10.698
10.193
9.29735
1095.85
1024.62
8.14469
9.2461
9.91962
10.3689
10.7163
11.0067
11.2431
11.4395
11.5905
11.6891
11.7302
11.717
11.6534
11.5453
11.3884
11.157
10.8316
10.5003
10.3857
10.5658
10.9676
11.3515
11.66
11.891
12.0356
12.0536
11.9438
11.7108
11.4145
11.0869
10.7258
10.2412
9.37956
1096.16
1024.62
8.06017
9.15688
9.85329
10.3273
10.6984
11.0097
11.2691
11.4864
11.6597
11.7867
11.8625
11.8797
11.8352
11.7263
11.5536
11.3145
10.9973
10.6142
10.309
10.3093
10.5681
10.9551
11.3016
11.5753
11.7671
11.8504
11.8071
11.6356
11.3792
11.0777
10.7319
10.2661
9.42423
1096.22
1024.7
8.03339
9.12242
9.83345
10.3193
10.6982
11.0194
11.2927
11.5267
11.7184
11.8637
11.9576
11.9945
11.9737
11.8901
11.7384
11.5082
11.1809
10.7525
10.3334
10.1645
10.3349
10.6972
11.0569
11.3482
11.5575
11.6657
11.652
11.5188
11.3013
11.0326
10.7133
10.2575
9.42743
1096.15
1024.72
7.95513
9.04169
9.7758
10.2833
10.6812
11.0219
11.315
11.5722
11.7901
11.9628
12.0837
12.1441
12.1428
12.0742
11.9344
11.7168
11.3997
10.9561
10.4555
10.1764
10.2356
10.5503
10.8942
11.1846
11.4007
11.5185
11.5252
11.4205
11.2312
10.9844
10.6818
10.2435
9.41467
1095.95
1024.67
7.87293
8.97887
9.73523
10.2576
10.668
11.0227
11.3307
11.6049
11.8456
12.0453
12.1961
12.2909
12.3208
12.2843
12.1726
11.9791
11.6936
11.289
10.7548
10.271
10.1699
10.3964
10.7274
11.0196
11.2395
11.3687
11.3914
11.3119
11.1487
10.923
10.6339
10.1978
9.33199
1095.55
1024.46
7.74848
8.88026
9.66343
10.2015
10.6248
10.9945
11.333
11.6338
11.9043
12.1353
12.3184
12.4462
12.5104
12.5115
12.4418
12.2947
12.0597
11.7184
11.2441
10.6728
10.3173
10.3119
10.5978
10.8973
11.115
11.2469
11.2775
11.208
11.0583
10.846
10.5674
10.1369
9.26308
1095.27
1024.17
7.62478
8.78875
9.59351
10.1424
10.5718
10.9496
11.3014
11.6359
11.9473
12.2242
12.4511
12.6189
12.7269
12.7682
12.7428
12.6495
12.4836
12.2314
11.8701
11.3656
10.7478
10.3763
10.396
10.6547
10.9206
11.0806
11.1491
11.126
11.0091
10.8149
10.5468
10.1274
9.26549
1095.32
1023.93
7.53797
8.73059
9.54711
10.1001
10.5339
10.9202
11.2866
11.6428
11.9888
12.3108
12.5906
12.8126
12.9651
13.044
13.051
12.9998
12.885
12.6987
12.4279
12.0397
11.5001
10.8523
10.423
10.438
10.6567
10.9061
11.0175
11.0137
10.922
10.7553
10.5145
10.1281
9.31128
1095.59
1023.64
7.46173
8.68875
9.50315
10.052
10.483
10.874
11.2569
11.643
12.0286
12.3881
12.7046
12.9678
13.171
13.3097
13.3833
13.3877
13.3269
13.1899
12.9888
12.7107
12.3088
11.7274
11.0085
10.4952
10.4629
10.6215
10.8557
10.9529
10.9101
10.7471
10.5111
10.1304
9.32591
1095.72
1023.51
7.45392
8.68512
9.49711
10.0317
10.4512
10.842
11.2378
11.6538
12.0733
12.4716
12.8264
13.1179
13.3393
13.4984
13.6029
13.6581
13.6689
13.6423
13.557
13.3936
13.1121
12.6703
12.0346
11.2921
10.5948
10.5053
10.5836
10.7343
10.8066
10.7521
10.5583
10.2235
9.48936
1096.63
1023.59
7.53924
8.7618
9.52374
10.0321
10.4421
10.8272
11.2358
11.6792
12.1356
12.5716
12.9541
13.2628
13.5006
13.6742
13.7975
13.8643
13.893
13.9007
13.9058
13.9081
13.8935
13.7893
13.5201
13.1032
12.4605
11.5187
10.7269
10.6899
10.7234
10.7283
10.6315
10.3528
9.82586
1099.8
1024.04
7.78655
8.92399
9.61265
10.0673
10.4445
10.827
11.264
11.7525
12.2577
12.728
13.1191
13.4222
13.6405
13.7824
13.8608
13.9033
13.9218
13.9336
13.9539
13.9926
14.0587
14.1401
14.1516
14.1035
13.9232
13.5473
12.8973
11.7487
11.0485
10.8187
10.7145
10.5334
10.2435
1101.56
1024.83
8.07736
9.07763
9.6748
10.073
10.4265
10.8088
11.2754
11.8208
12.3792
12.8777
13.278
13.569
13.7536
13.8425
13.8498
13.8185
13.7601
13.7157
13.7298
13.8124
14.0445
14.2976
14.4881
14.559
14.4652
14.0075
13.1318
12.0163
11.2857
10.9723
10.8142
10.6317
10.3744
1101.13
1025.58
8.32388
9.19582
9.69938
10.0564
10.3853
10.7615
11.2495
11.8523
12.4733
13.0181
13.4189
13.6822
13.8179
13.8427
13.776
13.623
13.4438
13.3318
13.3879
13.6999
14.1114
14.4155
14.5191
14.4649
14.1157
13.463
12.5915
11.7644
11.2546
11.0137
10.8254
10.5999
10.0234
1096.75
1026.01
8.41886
9.22609
9.68575
9.99764
10.2905
10.6505
11.154
11.8039
12.4788
13.0339
13.4389
13.7107
13.8596
13.8693
13.7578
13.5461
13.2529
12.9194
12.8371
13.1483
13.5737
13.8281
13.838
13.561
13.1297
12.5618
11.9735
11.5156
11.2231
11.0067
10.7453
10.2666
9.17665
1094.26
1026.05
8.42713
9.21316
9.63607
9.91283
10.1651
10.4745
10.9317
11.578
12.2864
12.9063
13.3737
13.7022
13.9001
13.9719
13.8879
13.6495
13.2652
12.788
12.3605
12.2551
12.487
12.7945
12.8427
12.694
12.3634
11.9588
11.5827
11.2969
11.066
10.8376
10.5219
9.92818
8.67127
1093.63
1026.04
8.3553
9.15958
9.58315
9.84352
10.058
10.2954
10.6459
11.194
11.893
12.5719
13.1266
13.5565
13.8648
14.0474
14.1058
13.9987
13.6959
13.1974
12.5337
11.8967
11.6699
11.7749
11.9587
12.0035
11.9056
11.6828
11.4244
11.1926
10.9859
10.7501
10.4341
9.87737
8.67523
1093.68
1025.66
8.22344
9.07336
9.51464
9.77461
9.9591
10.1165
10.3133
10.6618
11.2512
11.9619
12.6244
13.1786
13.6221
13.9541
14.1668
14.2514
14.2011
13.943
13.4896
12.8658
12.1444
11.5343
11.3624
11.373
11.4094
11.3956
11.3188
11.1714
10.9806
10.7441
10.4325
9.906
8.8007
1094.43
1025.22
8.06591
8.96584
9.44802
9.73845
9.94319
10.0912
10.2148
10.3789
10.7271
11.2989
11.985
12.6345
13.1953
13.6575
14.0187
14.2681
14.3924
14.3934
14.2166
13.8674
13.3439
12.6288
11.8509
11.341
11.1358
11.0792
11.0631
11.0388
10.9504
10.7644
10.485
10.0376
9.11712
1095.67
1024.82
7.89653
8.84161
9.36126
9.67426
9.89701
10.0641
10.1937
10.3076
10.4328
10.7563
11.3298
11.9906
12.6382
13.2123
13.694
14.0786
14.3578
14.5182
14.5558
14.4497
14.194
13.7822
13.1898
12.3904
11.5595
11.081
10.9282
10.8785
10.8346
10.7325
10.5074
10.1339
9.40466
1096.78
1024.49
7.75254
8.74184
9.29787
9.63265
9.86917
10.0477
10.1843
10.2949
10.4096
10.5667
10.8469
11.3634
12.0083
12.654
13.2387
13.7347
14.1355
14.433
14.6176
14.6798
14.6157
14.4105
14.0562
13.53
12.8047
11.8907
11.1103
10.8617
10.7679
10.6639
10.4853
10.1743
9.5797
1097.34
1024.13
7.57093
8.60767
9.20833
9.57002
9.82304
10.0174
10.1711
10.2982
10.4053
10.5392
10.7326
11.0337
11.4775
12.0774
12.7144
13.2929
13.7897
14.1947
14.4982
14.6857
14.7518
14.6925
14.4894
14.1369
13.6088
12.861
11.9264
11.0898
10.7866
10.64
10.458
10.1928
9.66626
1097.43
1023.78
7.41813
8.50216
9.14437
9.52856
9.79651
10.0007
10.1646
10.2981
10.4148
10.5518
10.7508
11.0178
11.3622
11.7937
12.3032
12.8693
13.4144
13.8917
14.2766
14.5555
14.7232
14.7661
14.6812
14.4445
14.0448
13.4409
12.5877
11.593
10.9262
10.6429
10.4469
10.1909
9.68446
1097.34
1023.64
7.3919
8.48672
9.13583
9.52521
9.79313
9.99662
10.1577
10.2997
10.4449
10.6176
10.8445
11.1198
11.4263
11.7915
12.2282
12.72
13.2146
13.6732
14.0673
14.3918
14.6281
14.7497
14.7377
14.5833
14.2702
13.7686
13.0195
12.0334
11.1459
10.7044
10.4572
10.1782
9.66147
1097.15
1023.66
7.40022
8.50111
9.14924
9.53919
9.8067
10.0086
10.1702
10.3128
10.4586
10.6525
10.9446
11.3273
11.7192
12.0697
12.4201
12.8077
13.2241
13.6275
13.9911
14.3109
14.5646
14.7209
14.7563
14.6604
14.4095
13.9798
13.3201
12.4035
11.4266
10.7894
10.4632
10.1684
9.63301
1097.07
1023.99
7.63005
8.67172
9.25953
9.61516
9.86253
10.0485
10.1939
10.3241
10.476
10.7154
11.0903
11.5902
12.0982
12.515
12.8541
13.1611
13.4615
13.7621
14.063
14.345
14.5789
14.7325
14.785
14.7222
14.5193
14.1491
13.5653
12.7301
11.7523
10.9678
10.5139
10.1761
9.60157
1097.01
1024.59
7.88516
8.81319
9.33596
9.66181
9.89416
10.0662
10.198
10.311
10.4865
10.7984
11.3077
11.918
12.4904
12.9413
13.2723
13.5361
13.7711
14.0035
14.232
14.4451
14.6262
14.7548
14.8016
14.7422
14.5578
14.2223
13.6968
12.9445
12.0208
11.1873
10.6308
10.1948
9.57897
1096.83
1025.4
8.05852
8.87335
9.36039
9.67763
9.9063
10.0694
10.1708
10.2564
10.4201
10.8033
11.3706
12.0016
12.5836
13.0523
13.4043
13.6862
13.9328
14.1636
14.3737
14.5516
14.6913
14.7795
14.7989
14.73
14.544
14.2122
13.6989
13.0019
12.1686
11.3731
10.7586
10.2245
9.49586
1096.37
1025.61
8.06908
8.87564
9.35321
9.66335
9.89027
10.0517
10.1535
10.1933
10.2416
10.4459
10.9442
11.6036
12.2507
12.7976
13.2288
13.5701
13.8628
14.1316
14.3599
14.5403
14.6732
14.748
14.7503
14.6642
14.4684
14.1402
13.6584
13.0065
12.2571
11.5177
10.8852
10.2675
9.40546
1095.85
1025.48
7.91385
8.73499
9.23724
9.58094
9.84473
10.0377
10.1564
10.1992
10.2015
10.2021
10.2638
10.6234
11.3227
12.0083
12.6119
13.1023
13.5181
13.8898
14.1886
14.4018
14.5464
14.6241
14.6276
14.5393
14.3429
14.0235
13.571
12.9914
12.3205
11.6413
10.9986
10.3002
9.29831
1095.42
1024.78
7.67015
8.57617
9.12063
9.48907
9.77754
10.0055
10.1776
10.2772
10.2931
10.2487
10.2062
10.2075
10.3363
10.8637
11.5588
12.2028
12.7929
13.3331
13.7668
14.076
14.2837
14.4037
14.4331
14.3673
14.1933
13.9033
13.4945
12.9764
12.3789
11.7499
11.1106
10.3634
9.27392
1095.26
1024.25
7.48849
8.42781
9.00138
9.39386
9.7076
9.97285
10.1786
10.3339
10.421
10.4317
10.3585
10.2366
10.1844
10.2598
10.5965
11.1532
11.7936
12.461
13.0572
13.5274
13.865
14.0789
14.1713
14.1546
14.0216
13.7722
13.4111
12.9514
12.4176
11.8375
11.2153
10.4508
9.29519
1095.29
1024
7.37178
8.33832
8.9458
9.36337
9.69446
9.9691
10.1904
10.3675
10.4949
10.5566
10.557
10.4757
10.3277
10.2273
10.2843
10.5986
11.1143
11.6929
12.2679
12.811
13.2685
13.6021
13.7994
13.8642
13.8012
13.6131
13.3092
12.9052
12.4244
11.8888
11.2929
10.5335
9.36009
1095.45
1023.88
7.28736
8.26428
8.89805
9.3401
9.69476
9.98924
10.2431
10.4498
10.6022
10.6933
10.7136
10.6637
10.5446
10.3774
10.2701
10.3522
10.6974
11.1765
11.6794
12.1765
12.6475
13.0671
13.3714
13.5271
13.5407
13.427
13.1911
12.8485
12.4216
11.9275
11.3637
10.6296
9.46674
1095.71
1023.8
7.20304
8.19348
8.85296
9.31954
9.6981
10.0195
10.2968
10.5315
10.719
10.8467
10.9012
10.8782
10.7752
10.6046
10.4161
10.3302
10.474
10.8302
11.2595
11.6988
12.1315
12.5425
12.8941
13.1453
13.2519
13.2122
13.0408
12.7579
12.3834
11.9341
11.4098
10.7135
9.57795
1095.96
1023.68
7.116
8.12314
8.80229
9.28566
9.68087
10.0297
10.3393
10.6119
10.8391
11.0095
11.1125
11.1298
11.0596
10.9059
10.6852
10.4636
10.3957
10.5822
10.9336
11.3239
11.7131
12.0948
12.4491
12.7362
12.9174
12.9648
12.8747
12.6531
12.3304
11.9283
11.4466
10.8004
9.7203
1096.29
1023.58
7.04453
8.0607
8.75517
9.25482
9.66693
10.036
10.3693
10.679
10.9606
11.1953
11.3541
11.4165
11.3829
11.2598
11.0494
10.7721
10.5238
10.4837
10.6679
10.995
11.3458
11.6985
12.0413
12.3445
12.5705
12.6839
12.669
12.5167
12.2506
11.8978
11.4689
10.8816
9.86701
1096.64
1023.52
6.99061
8.01041
8.7123
9.22124
9.64431
10.0268
10.383
10.7209
11.045
11.3395
11.5783
11.7301
11.764
11.6796
11.4839
11.1992
10.8497
10.5826
10.5808
10.7631
11.0642
11.38
11.6955
11.9927
12.2384
12.3973
12.4401
12.3581
12.1496
11.848
11.4684
10.9372
9.98464
1096.95
1023.52
6.96305
7.9783
8.68116
9.19756
9.63107
10.0274
10.4023
10.7629
11.1174
11.4507
11.743
11.968
12.0898
12.0953
11.9857
11.7194
11.3103
10.8813
10.6332
10.654
10.8408
11.1053
11.3943
11.694
11.9655
12.1598
12.2438
12.2076
12.0514
11.7976
11.4611
10.9776
10.0876
1097.28
1023.58
6.96011
7.95446
8.64852
9.16507
9.60572
10.0156
10.41
10.7899
11.1663
11.5303
11.8626
12.1378
12.3187
12.3904
12.3585
12.2022
11.8901
11.4394
10.9983
10.7487
10.8368
11.0649
11.3198
11.5694
11.8093
12.0013
12.1005
12.0866
11.9589
11.7404
11.4434
11.0096
10.1857
1097.54
1023.67
6.96768
7.94213
8.62354
9.1374
9.58466
10.0085
10.4234
10.8248
11.2152
11.5987
11.9551
12.2606
12.4798
12.5856
12.5887
12.4951
12.2787
11.9406
11.5405
11.1896
11.0435
11.147
11.3559
11.5742
11.7688
11.9166
12.0045
11.9967
11.8849
11.6853
11.415
11.0122
10.2233
1097.56
1023.77
6.9694
7.90915
8.5719
9.08029
9.53287
9.97008
10.4049
10.8396
11.2582
11.6633
12.0438
12.3795
12.6337
12.7692
12.7961
12.7243
12.5475
12.2669
11.9196
11.5856
11.4023
11.412
11.5299
11.6758
11.8107
11.9239
11.9782
11.9578
11.8403
11.6443
11.3826
10.9965
10.2159
1097.48
1023.79
6.94959
7.86763
8.51462
9.01537
9.46914
9.91648
10.3682
10.8214
11.268
11.685
12.0781
12.4351
12.7171
12.8855
12.9319
12.8741
12.7173
12.47
12.1676
11.8793
11.7011
11.666
11.7215
11.8115
11.9013
11.968
11.9826
11.9369
11.809
11.613
11.3554
10.9663
10.1612
1097.05
1023.74
6.8981
7.79995
8.43076
8.92321
9.37893
9.83765
10.3068
10.7788
11.2404
11.6808
12.0908
12.4715
12.7839
12.9897
13.0559
13.011
12.8621
12.6204
12.3208
12.0417
11.8645
11.8142
11.8404
11.8986
11.9582
11.9923
11.9837
11.9147
11.7711
11.5647
11.2957
10.8797
10.0128
1096.59
1023.65
6.85061
7.73989
8.3501
8.82954
9.28305
9.74884
10.2311
10.7206
11.2045
11.6698
12.1064
12.5069
12.8575
13.1054
13.2102
13.1938
13.066
12.833
12.5139
12.2004
11.996
11.919
11.9228
11.9627
11.9936
12.0009
11.9696
11.8818
11.734
11.5282
11.2544
10.818
9.90436
1096.34
1023.51
6.77295
7.6557
8.24597
8.71121
9.1599
9.62673
10.1105
10.603
11.0977
11.5866
12.0574
12.4973
12.8998
13.2088
13.3815
13.4091
13.3173
13.1049
12.7674
12.3747
12.0832
11.9696
11.9567
11.9678
11.9988
12.0064
11.9694
11.8723
11.7131
11.4984
11.217
10.7694
9.84531
1096.3
1023.34
6.71589
7.58982
8.15279
8.59868
9.03861
9.50082
9.97828
10.4649
10.9616
11.4666
11.9698
12.4539
12.9077
13.2882
13.5536
13.6568
13.6292
13.4666
13.1616
12.7301
12.2729
12.0009
11.9493
11.952
11.9687
11.9698
11.9341
11.8376
11.6812
11.4692
11.1876
10.7394
9.82
1096.31
1023.17
6.69157
7.5332
8.06624
8.49315
8.924
9.37657
9.84007
10.31
10.7916
11.29
11.8006
12.3151
12.8231
13.2898
13.6588
13.8969
13.9873
13.935
13.7358
13.3809
12.8802
12.3344
11.9858
11.927
11.9538
11.9673
11.9358
11.8409
11.6847
11.4733
11.1908
10.7439
9.83178
1096.52
1023.14
6.69701
7.51948
8.01881
8.42823
8.85301
9.2986
9.75398
10.2133
10.6818
11.1637
11.6559
12.1607
12.6803
13.2057
13.6726
14.0442
14.2874
14.4007
14.3752
14.2077
13.8743
13.372
12.7771
12.2726
12.0472
11.9941
11.9564
11.8719
11.7287
11.523
11.2485
10.8225
9.96486
1097.59
1023.27
6.77131
7.52714
7.98999
8.39203
8.82376
9.27719
9.73115
10.1879
10.6548
11.132
11.6142
12.1018
12.6004
13.1152
13.6135
14.083
14.4673
14.7221
14.849
14.8535
14.7364
14.4484
13.9836
13.3846
12.7751
12.3533
12.1325
11.9867
11.825
11.6116
11.344
10.9647
10.2544
1098.83
1023.59
6.86937
7.53066
7.97399
8.38112
8.81907
9.27636
9.72997
10.19
10.6666
11.154
11.6406
12.1213
12.6053
13.1085
13.6246
14.1353
14.5847