/*--------------------------------*- C++ -*----------------------------------*\
| =========                 |                                                 |
| \\      /  F ield         | OpenFOAM: The Open Source CFD Toolbox           |
|  \\    /   O peration     | Version:  2.0.x                                 |
|   \\  /    A nd           | Web:      www.OpenFOAM.org                      |
|    \\/     M anipulation  |                                                 |
\*---------------------------------------------------------------------------*/
FoamFile
{
    version     2.0;
    format      ascii;
    class       surfaceScalarField;
    location    "450";
    object      phi;
}
// * * * * * * * * * * * * * * * * * * * * * * * * * * * * * * * * * * * * * //

dimensions      [1 0 -1 0 0 0 0];

internalField   nonuniform List<scalar> 
228225
(
-4.17105e-06
2.3344e-06
1.59088e-06
-9.53719e-06
2.59301e-06
2.77314e-06
-1.38321e-05
1.32422e-06
2.97068e-06
-1.60015e-05
-7.80629e-07
2.95007e-06
-1.62022e-05
-2.63852e-06
2.8392e-06
-1.43824e-05
-4.54475e-06
2.72497e-06
-1.09371e-05
-6.06557e-06
2.62017e-06
-6.47844e-06
-6.99551e-06
2.53681e-06
-1.4554e-06
-7.52395e-06
2.50083e-06
3.81622e-06
-7.80853e-06
2.53682e-06
9.18631e-06
-7.91051e-06
2.5403e-06
1.45136e-05
-7.85903e-06
2.53162e-06
1.97734e-05
-7.76964e-06
2.50962e-06
2.49038e-05
-7.56999e-06
2.43943e-06
2.97669e-05
-7.2993e-06
2.43606e-06
3.42935e-05
-6.97792e-06
2.45119e-06
3.84142e-05
-6.58142e-06
2.46062e-06
4.20588e-05
-6.10864e-06
2.46393e-06
4.52846e-05
-5.67132e-06
2.44544e-06
4.80114e-05
-5.15619e-06
2.4292e-06
5.02451e-05
-4.65856e-06
2.42479e-06
5.17338e-05
-3.92108e-06
2.43227e-06
5.265e-05
-3.34685e-06
2.43057e-06
5.29028e-05
-2.68385e-06
2.43095e-06
5.24184e-05
-1.95641e-06
2.44061e-06
5.119e-05
-1.22517e-06
2.4534e-06
4.9187e-05
-4.68067e-07
2.4709e-06
4.61049e-05
5.89816e-07
2.49212e-06
4.23155e-05
1.26616e-06
2.52312e-06
3.75729e-05
2.18454e-06
2.55787e-06
3.18119e-05
3.1469e-06
2.61394e-06
2.49884e-05
4.15425e-06
2.669e-06
1.69526e-05
5.23822e-06
2.79722e-06
7.86441e-06
6.29305e-06
2.79466e-06
6.09334e-06
1.77107e-06
4.39927e-07
8.17954e-07
1.07657e-06
6.76464e-07
3.05052e-07
2.05148e-06
1.46523e-06
-1.80946e-06
2.34495e-06
3.22042e-06
-4.85857e-06
2.32277e-06
5.83556e-06
-7.4973e-06
2.24364e-06
9.03272e-06
-9.77069e-06
2.02875e-06
1.22249e-05
-1.11255e-05
1.86767e-06
1.54031e-05
-1.18757e-05
1.7019e-06
1.85268e-05
-1.22504e-05
1.60261e-06
2.16336e-05
-1.23943e-05
1.47884e-06
2.46649e-05
-1.23401e-05
1.39822e-06
2.75632e-05
-1.20878e-05
1.33029e-06
3.02641e-05
-1.17808e-05
1.31008e-06
3.27174e-05
-1.13647e-05
1.34124e-06
3.49225e-05
-1.08487e-05
1.34405e-06
3.68549e-05
-1.02596e-05
1.34898e-06
3.85326e-05
-9.61441e-06
1.35506e-06
3.99116e-05
-8.85888e-06
1.37096e-06
4.07883e-05
-7.94793e-06
1.39959e-06
4.12496e-05
-7.04551e-06
1.42768e-06
4.13272e-05
-6.17986e-06
1.44335e-06
4.12339e-05
-5.28972e-06
1.46166e-06
4.07802e-05
-4.37742e-06
1.4839e-06
3.99875e-05
-3.40617e-06
1.51473e-06
3.88457e-05
-2.37646e-06
1.56153e-06
3.73383e-05
-1.31446e-06
1.59641e-06
3.51808e-05
3.99303e-08
1.64922e-06
3.26959e-05
1.35393e-06
1.72057e-06
2.96748e-05
2.48657e-06
1.80052e-06
2.60622e-05
3.90255e-06
1.89443e-06
2.16851e-05
5.51635e-06
2.00738e-06
1.64398e-05
7.26169e-06
2.13762e-06
1.03176e-05
9.08987e-06
2.27034e-06
4.06545e-06
1.03166e-05
2.22837e-06
8.7835e-06
1.37527e-06
7.0655e-07
-6.70751e-07
7.82088e-07
3.22074e-06
-3.6205e-06
1.41126e-06
6.93775e-06
-7.11068e-06
1.58411e-06
1.06914e-05
-1.0138e-05
1.5257e-06
1.4124e-05
-1.22447e-05
1.3147e-06
1.67091e-05
-1.34794e-05
1.12349e-06
1.85038e-05
-1.39992e-05
1.07892e-06
1.98493e-05
-1.42609e-05
1.03944e-06
2.09068e-05
-1.43386e-05
1.03061e-06
2.17559e-05
-1.4283e-05
1.03947e-06
2.24293e-05
-1.40837e-05
1.07001e-06
2.30184e-05
-1.37702e-05
1.09308e-06
2.34836e-05
-1.3356e-05
1.10969e-06
2.38629e-05
-1.28627e-05
1.1185e-06
2.41881e-05
-1.22955e-05
1.1213e-06
2.44607e-05
-1.16603e-05
1.12774e-06
2.46739e-05
-1.09632e-05
1.13537e-06
2.48706e-05
-1.02021e-05
1.14617e-06
2.50684e-05
-9.31717e-06
1.17105e-06
2.52019e-05
-8.37891e-06
1.19949e-06
2.51788e-05
-7.38749e-06
1.23037e-06
2.49501e-05
-6.32453e-06
1.2631e-06
2.44684e-05
-5.19001e-06
1.29383e-06
2.37653e-05
-4.02489e-06
1.32134e-06
2.28969e-05
-2.85619e-06
1.34751e-06
2.18385e-05
-1.6431e-06
1.38636e-06
2.0406e-05
3.93827e-08
1.4326e-06
1.91594e-05
1.11537e-06
1.48461e-06
1.74205e-05
2.66318e-06
1.56162e-06
1.52178e-05
4.43663e-06
1.66794e-06
1.24923e-05
6.45856e-06
1.78265e-06
9.09257e-06
8.75849e-06
1.90233e-06
5.24813e-06
1.09509e-05
1.98279e-06
1.74999e-06
1.1941e-05
1.87299e-06
9.47212e-06
1.06136e-06
4.90298e-07
-1.74262e-06
5.81459e-07
2.23303e-06
-6.29828e-06
9.34925e-07
4.48531e-06
-1.02157e-05
8.52643e-07
6.46216e-06
-1.28127e-05
6.97633e-07
7.87029e-06
-1.42536e-05
6.006e-07
8.82535e-06
-1.502e-05
5.85403e-07
9.65135e-06
-1.54448e-05
6.19468e-07
1.03608e-05
-1.56432e-05
6.72675e-07
1.09732e-05
-1.567e-05
7.18818e-07
1.15032e-05
-1.55624e-05
7.4917e-07
1.19916e-05
-1.5337e-05
7.64628e-07
1.24509e-05
-1.50102e-05
7.80392e-07
1.28885e-05
-1.45932e-05
7.99344e-07
1.32959e-05
-1.40906e-05
8.2001e-07
1.36665e-05
-1.35076e-05
8.41147e-07
1.39918e-05
-1.28486e-05
8.62598e-07
1.42604e-05
-1.21178e-05
8.85555e-07
1.44668e-05
-1.13191e-05
9.1002e-07
1.46654e-05
-1.04528e-05
9.36508e-07
1.48315e-05
-9.51264e-06
9.67089e-07
1.49375e-05
-8.49782e-06
1.00367e-06
1.49602e-05
-7.39597e-06
1.04807e-06
1.48461e-05
-6.18005e-06
1.10345e-06
1.4559e-05
-4.89797e-06
1.15946e-06
1.40905e-05
-3.60941e-06
1.22102e-06
1.34941e-05
-2.33484e-06
1.28749e-06
1.29317e-05
-7.52578e-07
1.35388e-06
1.19581e-05
6.72679e-07
1.41564e-06
1.09748e-05
2.15321e-06
1.49271e-06
9.66692e-06
4.17436e-06
1.56949e-06
7.86784e-06
6.60534e-06
1.65174e-06
5.51382e-06
9.38805e-06
1.72404e-06
2.92689e-06
1.17817e-05
1.75565e-06
7.06252e-07
1.25786e-05
1.58253e-06
9.38904e-06
7.89313e-07
6.96382e-07
-2.81842e-06
3.79184e-07
2.1325e-06
-8.25871e-06
5.24108e-07
3.58707e-06
-1.21377e-05
4.67198e-07
4.804e-06
-1.44412e-05
4.11451e-07
5.83852e-06
-1.5702e-05
4.13754e-07
6.74865e-06
-1.6384e-05
4.53649e-07
7.54324e-06
-1.67274e-05
4.8779e-07
8.23047e-06
-1.68467e-05
5.16139e-07
8.83046e-06
-1.6813e-05
5.42724e-07
9.35782e-06
-1.66499e-05
5.59912e-07
9.81064e-06
-1.6376e-05
5.85948e-07
1.01873e-05
-1.60033e-05
6.16148e-07
1.04898e-05
-1.5541e-05
6.45031e-07
1.07216e-05
-1.49938e-05
6.71086e-07
1.08867e-05
-1.43691e-05
6.95957e-07
1.09888e-05
-1.36726e-05
7.21483e-07
1.10288e-05
-1.29074e-05
7.4917e-07
1.10039e-05
-1.20747e-05
7.79992e-07
1.09113e-05
-1.11752e-05
8.14559e-07
1.07553e-05
-1.021e-05
8.52888e-07
1.05403e-05
-9.17789e-06
8.94567e-07
1.02804e-05
-8.07547e-06
9.38825e-07
1.00089e-05
-6.89633e-06
9.87054e-07
9.71674e-06
-5.64718e-06
1.04074e-06
9.39546e-06
-4.39362e-06
1.1048e-06
9.11439e-06
-3.22971e-06
1.17518e-06
8.99472e-06
-1.88548e-06
1.25184e-06
8.55431e-06
-2.13368e-07
1.32576e-06
8.12408e-06
1.18571e-06
1.39697e-06
7.3762e-06
3.44295e-06
1.47854e-06
6.02564e-06
6.40166e-06
1.55358e-06
4.21631e-06
9.58747e-06
1.60934e-06
2.21344e-06
1.21715e-05
1.61254e-06
5.21667e-07
1.28544e-05
1.41529e-06
9.20511e-06
7.05588e-07
3.94867e-07
-3.48469e-06
2.71155e-07
1.2308e-06
-9.40395e-06
3.09117e-07
2.18144e-06
-1.3299e-05
2.10466e-07
3.09244e-06
-1.54875e-05
1.3513e-07
3.87926e-06
-1.66175e-05
1.28525e-07
4.54152e-06
-1.72039e-05
1.57566e-07
5.0878e-06
-1.74966e-05
2.22838e-07
5.53575e-06
-1.75959e-05
3.01004e-07
5.9173e-06
-1.75523e-05
3.5764e-07
6.24823e-06
-1.7381e-05
3.99939e-07
6.53214e-06
-1.71004e-05
4.40218e-07
6.77305e-06
-1.67222e-05
4.77707e-07
6.97961e-06
-1.62562e-05
5.0839e-07
7.15969e-06
-1.57113e-05
5.37127e-07
7.32023e-06
-1.50953e-05
5.65356e-07
7.46646e-06
-1.44134e-05
5.94216e-07
7.60026e-06
-1.36659e-05
6.24328e-07
7.72112e-06
-1.28523e-05
6.56411e-07
7.82558e-06
-1.19718e-05
6.91665e-07
7.90621e-06
-1.10226e-05
7.31464e-07
7.95158e-06
-1.00006e-05
7.76855e-07
7.94643e-06
-8.9004e-06
8.29603e-07
7.8796e-06
-7.71987e-06
8.8988e-07
7.74264e-06
-6.47058e-06
9.59879e-07
7.52013e-06
-5.20644e-06
1.03485e-06
7.19991e-06
-4.0219e-06
1.11194e-06
6.94661e-06
-2.82329e-06
1.19065e-06
6.77001e-06
-1.31528e-06
1.27808e-06
6.22976e-06
3.69036e-07
1.35643e-06
5.80408e-06
2.43251e-06
1.43561e-06
5.00496e-06
5.7084e-06
1.4919e-06
3.58627e-06
9.48213e-06
1.52362e-06
1.91663e-06
1.23529e-05
1.48782e-06
4.84914e-07
1.30198e-05
1.2658e-06
9.09222e-06
5.97801e-07
3.35063e-07
-3.96612e-06
1.46364e-07
1.07325e-06
-1.02407e-05
9.85077e-08
1.97659e-06
-1.42059e-05
3.60555e-09
2.90438e-06
-1.63759e-05
-3.94143e-08
3.78782e-06
-1.7482e-05
-1.89538e-08
4.60776e-06
-1.80495e-05
2.56163e-08
5.34472e-06
-1.83222e-05
8.85102e-08
5.99673e-06
-1.83986e-05
1.50647e-07
6.57301e-06
-1.83375e-05
2.08866e-07
7.08448e-06
-1.81504e-05
2.57813e-07
7.54068e-06
-1.78561e-05
2.99405e-07
7.95182e-06
-1.7466e-05
3.32513e-07
8.32054e-06
-1.69895e-05
3.64429e-07
8.65057e-06
-1.64356e-05
3.94201e-07
8.95269e-06
-1.58198e-05
4.2229e-07
9.22964e-06
-1.51399e-05
4.494e-07
9.46853e-06
-1.43812e-05
4.76243e-07
9.65405e-06
-1.35419e-05
5.03874e-07
9.77509e-06
-1.26269e-05
5.33923e-07
9.82947e-06
-1.16452e-05
5.68105e-07
9.82211e-06
-1.06015e-05
6.08142e-07
9.76131e-06
-9.49561e-06
6.55857e-07
9.6524e-06
-8.32457e-06
7.13466e-07
9.48237e-06
-7.08549e-06
7.84786e-07
9.20417e-06
-5.79686e-06
8.68473e-07
8.75498e-06
-4.53296e-06
9.60129e-07
8.24388e-06
-3.36686e-06
1.05454e-06
7.73864e-06
-1.96885e-06
1.15868e-06
6.89162e-06
-5.44259e-08
1.27037e-06
6.21332e-06
1.74351e-06
1.36719e-06
5.31551e-06
5.15564e-06
1.45048e-06
3.91627e-06
9.41153e-06
1.46978e-06
2.22598e-06
1.26216e-05
1.42155e-06
7.16443e-07
1.33431e-05
1.18624e-06
9.23965e-06
5.69023e-07
3.78339e-07
-4.40986e-06
6.56606e-08
1.22735e-06
-1.10631e-05
-2.64097e-08
2.30461e-06
-1.51544e-05
-1.28604e-07
3.43225e-06
-1.73169e-05
-1.86451e-07
4.50958e-06
-1.83694e-05
-1.89822e-07
5.50262e-06
-1.88835e-05
-1.58931e-07
6.39166e-06
-1.91105e-05
-1.00611e-07
7.17307e-06
-1.91472e-05
-3.27508e-08
7.85875e-06
-1.90604e-05
3.72517e-08
8.45508e-06
-1.88514e-05
1.04726e-07
8.97595e-06
-1.85351e-05
1.58199e-07
9.43112e-06
-1.81225e-05
2.01449e-07
9.82998e-06
-1.76249e-05
2.36598e-07
1.01776e-05
-1.70482e-05
2.65085e-07
1.04586e-05
-1.63873e-05
2.86671e-07
1.06481e-05
-1.56359e-05
3.06633e-07
1.07418e-05
-1.48007e-05
3.25873e-07
1.0748e-05
-1.38928e-05
3.44936e-07
1.06806e-05
-1.29267e-05
3.67281e-07
1.05489e-05
-1.19068e-05
3.93423e-07
1.03587e-05
-1.0836e-05
4.24872e-07
1.01139e-05
-9.71495e-06
4.64272e-07
9.81901e-06
-8.5428e-06
5.13307e-07
9.47567e-06
-7.3173e-06
5.7534e-07
9.08007e-06
-6.05223e-06
6.51164e-07
8.61856e-06
-4.81097e-06
7.3972e-07
8.06218e-06
-3.65312e-06
8.4285e-07
7.40948e-06
-2.27325e-06
9.57331e-07
6.66921e-06
-4.03798e-07
1.08986e-06
5.83292e-06
1.38464e-06
1.19539e-06
4.81167e-06
4.86771e-06
1.3094e-06
3.47289e-06
9.39404e-06
1.35643e-06
1.91361e-06
1.2874e-05
1.30715e-06
5.653e-07
1.36202e-05
1.07164e-06
9.3005e-06
5.04472e-07
3.59424e-07
-4.76316e-06
-5.57463e-09
1.2537e-06
-1.18341e-05
-1.22875e-07
2.41585e-06
-1.6106e-05
-2.10261e-07
3.66466e-06
-1.83099e-05
-2.55601e-07
4.90506e-06
-1.93475e-05
-2.62086e-07
6.08947e-06
-1.98243e-05
-2.43424e-07
7.18539e-06
-1.99997e-05
-2.06554e-07
8.18401e-06
-1.99863e-05
-1.59231e-07
9.07062e-06
-1.98411e-05
-1.05665e-07
9.84316e-06
-1.95724e-05
-5.12206e-08
1.05017e-05
-1.91954e-05
2.0701e-09
1.10504e-05
-1.87223e-05
5.13955e-08
1.14983e-05
-1.81673e-05
9.48476e-08
1.18476e-05
-1.75297e-05
1.3258e-07
1.20746e-05
-1.67808e-05
1.66876e-07
1.21692e-05
-1.59294e-05
1.99232e-07
1.21473e-05
-1.50062e-05
2.27792e-07
1.20345e-05
-1.40303e-05
2.50805e-07
1.18433e-05
-1.30137e-05
2.78709e-07
1.15867e-05
-1.19561e-05
3.0644e-07
1.12729e-05
-1.0858e-05
3.3627e-07
1.09065e-05
-9.71959e-06
3.71696e-07
1.04913e-05
-8.54097e-06
4.13912e-07
1.00289e-05
-7.32078e-06
4.66465e-07
9.51498e-06
-6.06887e-06
5.3121e-07
8.92888e-06
-4.83128e-06
6.07002e-07
8.22862e-06
-3.64504e-06
6.92826e-07
7.40787e-06
-2.24745e-06
7.95605e-07
6.4883e-06
-4.04741e-07
9.21188e-07
5.51128e-06
1.31808e-06
1.04431e-06
4.46068e-06
4.73276e-06
1.1862e-06
3.18074e-06
9.42881e-06
1.24562e-06
1.77581e-06
1.3081e-05
1.19836e-06
5.66382e-07
1.38653e-05
9.64845e-07
9.4286e-06
4.38321e-07
5.35526e-07
-5.24527e-06
-5.26839e-08
1.65543e-06
-1.27844e-05
-1.69057e-07
2.98455e-06
-1.71909e-05
-2.43851e-07
4.33844e-06
-1.93657e-05
-2.97745e-07
5.65431e-06
-2.0342e-05
-3.21104e-07
6.90859e-06
-2.07572e-05
-3.21135e-07
8.07538e-06
-2.08651e-05
-3.01106e-07
9.14863e-06
-2.07934e-05
-2.6586e-07
1.00983e-05
-2.05669e-05
-2.23436e-07
1.09127e-05
-2.02097e-05
-1.76768e-07
1.15884e-05
-1.97414e-05
-1.29303e-07
1.21219e-05
-1.91716e-05
-8.37097e-08
1.24972e-05
-1.85002e-05
-4.18702e-08
1.27023e-05
-1.77297e-05
-4.71172e-09
1.27733e-05
-1.68798e-05
2.85319e-08
1.27601e-05
-1.59698e-05
5.42303e-08
1.26851e-05
-1.50058e-05
7.52211e-08
1.25494e-05
-1.3992e-05
9.80813e-08
1.23503e-05
-1.29279e-05
1.14007e-07
1.20844e-05
-1.18197e-05
1.30282e-07
1.17532e-05
-1.06758e-05
1.49816e-07
1.13639e-05
-9.50371e-06
1.74229e-07
1.09268e-05
-8.30855e-06
2.05518e-07
1.04524e-05
-7.09239e-06
2.46819e-07
9.94476e-06
-5.86051e-06
3.00142e-07
9.38162e-06
-4.63266e-06
3.65408e-07
8.69945e-06
-3.40476e-06
4.42893e-07
7.86377e-06
-1.95381e-06
5.43114e-07
6.83781e-06
-5.6874e-08
6.79245e-07
5.70395e-06
1.64467e-06
8.08721e-07
4.52551e-06
4.94114e-06
9.71378e-07
3.22496e-06
9.61244e-06
1.11781e-06
1.81344e-06
1.33965e-05
1.09698e-06
5.77052e-07
1.42251e-05
8.77992e-07
9.61793e-06
3.87769e-07
5.53269e-07
-5.72129e-06
-7.64717e-08
1.66469e-06
-1.37247e-05
-1.70637e-07
2.92041e-06
-1.82259e-05
-2.20268e-07
4.18297e-06
-2.03591e-05
-2.68843e-07
5.42398e-06
-2.12789e-05
-3.03777e-07
6.63156e-06
-2.16387e-05
-3.25775e-07
7.78293e-06
-2.16853e-05
-3.30844e-07
8.85778e-06
-2.15483e-05
-3.19652e-07
9.82616e-06
-2.12364e-05
-2.98585e-07
1.06756e-05
-2.07893e-05
-2.6948e-07
1.13939e-05
-2.02238e-05
-2.35484e-07
1.19726e-05
-1.95508e-05
-1.98995e-07
1.23986e-05
-1.87636e-05
-1.62156e-07
1.26773e-05
-1.7881e-05
-1.26731e-07
1.28359e-05
-1.69439e-05
-9.37187e-08
1.28855e-05
-1.59537e-05
-6.4948e-08
1.28302e-05
-1.49088e-05
-4.0801e-08
1.267e-05
-1.38089e-05
-2.21654e-08
1.24055e-05
-1.26539e-05
-8.69868e-09
1.20397e-05
-1.14568e-05
3.77166e-09
1.15894e-05
-1.02424e-05
1.78288e-08
1.108e-05
-9.02951e-06
3.60979e-08
1.05392e-05
-7.82705e-06
6.01999e-08
9.99324e-06
-6.63621e-06
9.06002e-08
9.45486e-06
-5.45147e-06
1.30194e-07
8.904e-06
-4.26032e-06
1.79399e-07
8.27475e-06
-3.01436e-06
2.39826e-07
7.53598e-06
-1.53724e-06
3.23226e-07
6.68094e-06
3.53399e-07
4.45854e-07
5.63831e-06
2.1212e-06
5.67223e-07
4.3296e-06
5.47812e-06
7.72825e-07
2.88493e-06
1.01273e-05
9.30734e-07
1.47782e-06
1.3856e-05
9.48792e-07
3.56251e-07
1.45961e-05
7.51872e-07
9.68435e-06
2.89875e-07
6.4115e-07
-6.28102e-06
-8.08392e-08
1.71788e-06
-1.46562e-05
-1.44789e-07
2.81535e-06
-1.91462e-05
-1.76931e-07
3.86291e-06
-2.11783e-05
-2.28047e-07
4.88129e-06
-2.20218e-05
-2.75199e-07
5.8796e-06
-2.23223e-05
-3.14477e-07
6.84519e-06
-2.23121e-05
-3.38513e-07
7.74716e-06
-2.21028e-05
-3.47197e-07
8.56487e-06
-2.17083e-05
-3.45511e-07
9.27372e-06
-2.11637e-05
-3.34083e-07
9.85543e-06
-2.04898e-05
-3.15364e-07
1.0305e-05
-1.97076e-05
-2.92497e-07
1.06587e-05
-1.88466e-05
-2.70335e-07
1.09397e-05
-1.79122e-05
-2.49464e-07
1.1125e-05
-1.68975e-05
-2.31316e-07
1.11926e-05
-1.58067e-05
-2.14247e-07
1.11319e-05
-1.46474e-05
-2.00316e-07
1.09425e-05
-1.3429e-05
-1.8992e-07
1.0631e-05
-1.21601e-05
-1.81693e-07
1.02071e-05
-1.08589e-05
-1.73476e-07
9.70018e-06
-9.57054e-06
-1.64259e-07
9.15029e-06
-8.32757e-06
-1.51342e-07
8.59361e-06
-7.13719e-06
-1.32439e-07
8.05922e-06
-5.99244e-06
-1.0859e-07
7.55708e-06
-4.87154e-06
-7.69523e-08
7.06883e-06
-3.735e-06
-3.61253e-08
6.55057e-06
-2.51294e-06
1.79684e-08
5.98515e-06
-1.06716e-06
9.66235e-08
5.35233e-06
7.64765e-07
2.22803e-07
4.41993e-06
2.69123e-06
3.63866e-07
3.16304e-06
6.18468e-06
5.51745e-07
1.81348e-06
1.07545e-05
7.23415e-07
7.08167e-07
1.42055e-05
7.57193e-07
7.04418e-09
1.47192e-05
5.79674e-07
9.49407e-06
1.97366e-07
4.93586e-07
-6.71849e-06
-5.5839e-08
1.23081e-06
-1.53148e-05
-7.84737e-08
1.90841e-06
-1.97323e-05
-9.13389e-08
2.54565e-06
-2.16793e-05
-1.36132e-07
3.19432e-06
-2.248e-05
-1.90435e-07
3.86978e-06
-2.27538e-05
-2.43806e-07
4.56077e-06
-2.27177e-05
-2.8527e-07
5.22928e-06
-2.24559e-05
-3.1532e-07
5.8649e-06
-2.2009e-05
-3.34761e-07
6.45108e-06
-2.14047e-05
-3.45069e-07
6.97271e-06
-2.06658e-05
-3.45521e-07
7.42778e-06
-1.98169e-05
-3.45561e-07
7.7893e-06
-1.88714e-05
-3.36502e-07
8.03452e-06
-1.78359e-05
-3.21292e-07
8.15297e-06
-1.67112e-05
-3.04495e-07
8.14071e-06
-1.55034e-05
-2.90775e-07
8.0015e-06
-1.42265e-05
-2.81434e-07
7.7494e-06
-1.29002e-05
-2.76501e-07
7.40592e-06
-1.15422e-05
-2.74226e-07
6.98547e-06
-1.01672e-05
-2.71013e-07
6.51503e-06
-8.83612e-06
-2.63716e-07
6.032e-06
-7.59345e-06
-2.50791e-07
5.56388e-06
-6.43716e-06
-2.31576e-07
5.12947e-06
-5.34848e-06
-2.09176e-07
4.73217e-06
-4.29375e-06
-1.8005e-07
4.36366e-06
-3.22336e-06
-1.42556e-07
4.00974e-06
-2.06544e-06
-9.27915e-08
3.65797e-06
-6.93307e-07
-2.10611e-08
3.33467e-06
1.0067e-06
8.26582e-08
2.73554e-06
3.08226e-06
2.09632e-07
1.8806e-06
6.64007e-06
4.01064e-07
9.59527e-07
1.11021e-05
5.74588e-07
2.36538e-07
1.43148e-05
6.14816e-07
-1.64521e-07
1.46537e-05
4.68226e-07
9.20474e-06
1.24851e-07
2.57378e-07
-6.95148e-06
-2.45135e-08
5.18441e-07
-1.55471e-05
-2.88861e-08
7.03251e-07
-1.98818e-05
-3.54385e-08
8.73087e-07
-2.17825e-05
-6.67002e-08
1.08046e-06
-2.25715e-05
-1.15991e-07
1.34026e-06
-2.28452e-05
-1.68545e-07
1.6479e-06
-2.28095e-05
-2.15991e-07
1.98686e-06
-2.25379e-05
-2.57116e-07
2.33868e-06
-2.20721e-05
-2.8894e-07
2.69103e-06
-2.14463e-05
-3.11132e-07
3.03588e-06
-2.06811e-05
-3.29906e-07
3.349e-06
-1.97928e-05
-3.37571e-07
3.60479e-06
-1.87921e-05
-3.35464e-07
3.78721e-06
-1.76884e-05
-3.3029e-07
3.89085e-06
-1.64908e-05
-3.24389e-07
3.92162e-06
-1.52138e-05
-3.2069e-07
3.88706e-06
-1.38707e-05
-3.21563e-07
3.79296e-06
-1.24779e-05
-3.28429e-07
3.64698e-06
-1.10564e-05
-3.40031e-07
3.46445e-06
-9.63743e-06
-3.47361e-07
3.25896e-06
-8.28228e-06
-3.48438e-07
3.06005e-06
-7.0535e-06
-3.41052e-07
2.87928e-06
-5.93028e-06
-3.26049e-07
2.72769e-06
-4.89011e-06
-3.06635e-07
2.60906e-06
-3.89486e-06
-2.80006e-07
2.52295e-06
-2.89064e-06
-2.46223e-07
2.45835e-06
-1.79724e-06
-2.03013e-07
2.38454e-06
-4.76076e-07
-1.42559e-07
2.34808e-06
1.10179e-06
-5.74214e-08
2.05135e-06
3.3166e-06
6.38913e-08
1.49891e-06
6.93536e-06
2.58543e-07
8.12593e-07
1.1343e-05
4.46454e-07
2.26481e-07
1.43986e-05
5.03539e-07
-9.13038e-08
1.46069e-05
3.66253e-07
9.02192e-06
9.15423e-08
3.55037e-08
-6.99347e-06
6.05677e-09
4.61203e-08
-1.55684e-05
1.02704e-08
4.06603e-08
-1.9882e-05
5.41864e-09
4.84463e-08
-2.17827e-05
-7.86196e-09
8.73807e-08
-2.25783e-05
-3.23658e-08
1.68494e-07
-2.28542e-05
-7.24194e-08
2.97579e-07
-2.2823e-05
-1.15919e-07
4.74392e-07
-2.2558e-05
-1.57037e-07
6.86852e-07
-2.20914e-05
-1.93524e-07
9.19653e-07
-2.1455e-05
-2.24418e-07
1.16178e-06
-2.06778e-05
-2.45819e-07
1.39731e-06
-1.97716e-05
-2.57174e-07
1.6198e-06
-1.8749e-05
-2.66209e-07
1.82359e-06
-1.76217e-05
-2.7114e-07
2.01015e-06
-1.64068e-05
-2.71275e-07
2.18064e-06
-1.51133e-05
-2.71849e-07
2.33579e-06
-1.37524e-05
-2.74289e-07
2.4724e-06
-1.23357e-05
-2.79709e-07
2.58215e-06
-1.0878e-05
-2.89015e-07
2.65956e-06
-9.41054e-06
-3.0511e-07
2.67989e-06
-7.98179e-06
-3.21553e-07
2.64568e-06
-6.68627e-06
-3.33643e-07
2.59892e-06
-5.55133e-06
-3.32653e-07
2.56791e-06
-4.53602e-06
-3.23399e-07
2.56748e-06
-3.59054e-06
-3.04066e-07
2.60378e-06
-2.64995e-06
-2.77007e-07
2.65145e-06
-1.60205e-06
-2.42706e-07
2.6763e-06
-3.04381e-07
-1.96205e-07
2.64618e-06
1.26423e-06
-1.31752e-07
2.27659e-06
3.71695e-06
-3.00411e-08
1.65207e-06
7.42154e-06
1.3907e-07
9.1667e-07
1.17587e-05
3.20354e-07
3.3833e-07
1.45843e-05
3.93164e-07
-7.62756e-09
1.46506e-05
3.03064e-07
8.93973e-06
7.45776e-08
-1.67509e-07
-6.85786e-06
3.11929e-08
-4.16443e-07
-1.53481e-05
2.82496e-08
-6.25488e-07
-1.96925e-05
1.91492e-08
-7.63437e-07
-2.16662e-05
2.10763e-08
-8.39296e-07
-2.25192e-05
1.65001e-08
-8.53374e-07
-2.28381e-05
-2.31543e-09
-8.08968e-07
-2.28397e-05
-2.80529e-08
-7.04594e-07
-2.26063e-05
-5.64955e-08
-5.34665e-07
-2.21723e-05
-8.9465e-08
-3.00057e-07
-2.15648e-05
-1.2539e-07
-1.57471e-08
-2.0804e-05
-1.58753e-07
3.02906e-07
-1.99054e-05
-1.85546e-07
6.43422e-07
-1.88838e-05
-2.06315e-07
9.94181e-07
-1.77521e-05
-2.21083e-07
1.34583e-06
-1.65271e-05
-2.32109e-07
1.69026e-06
-1.52188e-05
-2.3965e-07
2.02629e-06
-1.38431e-05
-2.46142e-07
2.35658e-06
-1.24134e-05
-2.53383e-07
2.67863e-06
-1.09385e-05
-2.623e-07
2.96809e-06
-9.4282e-06
-2.72608e-07
3.18504e-06
-7.91724e-06
-2.82191e-07
3.29479e-06
-6.50639e-06
-2.90177e-07
3.3109e-06
-5.26502e-06
-3.02853e-07
3.271e-06
-4.19067e-06
-3.05733e-07
3.20513e-06
-3.22984e-06
-2.94965e-07
3.12735e-06
-2.29875e-06
-2.73404e-07
3.01815e-06
-1.25131e-06
-2.41356e-07
2.8652e-06
4.65188e-08
-1.9756e-07
2.64605e-06
1.62319e-06
-1.39211e-07
2.18136e-06
4.23028e-06
-4.79398e-08
1.53125e-06
7.98028e-06
9.19751e-08
8.44444e-07
1.22017e-05
2.44217e-07
3.4226e-07
1.47791e-05
3.07814e-07
4.75895e-08
1.47069e-05
2.38995e-07
8.91723e-06
7.01092e-08
-3.08591e-07
-6.57352e-06
2.37132e-08
-6.8151e-07
-1.49653e-05
-1.02186e-08
-8.9557e-07
-1.94467e-05
-3.19763e-08
-1.01433e-06
-2.15321e-05
-1.56097e-08
-1.07934e-06
-2.2458e-05
3.50989e-09
-1.09654e-06
-2.28378e-05
1.64929e-08
-1.05179e-06
-2.28982e-05
1.33161e-08
-9.3616e-07
-2.2723e-05
6.21459e-10
-7.44169e-07
-2.23473e-05
-1.75419e-08
-4.77153e-07
-2.17948e-05
-3.75189e-08
-1.39751e-07
-2.10829e-05
-5.91659e-08
2.59253e-07
-2.02244e-05
-8.06831e-08
7.05736e-07
-1.92315e-05
-9.96503e-08
1.18377e-06
-1.81163e-05
-1.14742e-07
1.6732e-06
-1.68916e-05
-1.25872e-07
2.15984e-06
-1.55723e-05
-1.34187e-07
2.63417e-06
-1.4177e-05
-1.41482e-07
3.08917e-06
-1.27199e-05
-1.49477e-07
3.51309e-06
-1.12036e-05
-1.59927e-07
3.89698e-06
-9.63792e-06
-1.75132e-07
4.22131e-06
-8.04674e-06
-1.95747e-07
4.44051e-06
-6.51034e-06
-2.16058e-07
4.50062e-06
-5.09615e-06
-2.29615e-07
4.40645e-06
-3.8555e-06
-2.41473e-07
4.18582e-06
-2.76734e-06
-2.42217e-07
3.86045e-06
-1.74315e-06
-2.30444e-07
3.46304e-06
-6.47295e-07
-2.06671e-07
3.11072e-06
5.69065e-07
-1.70099e-07
2.66275e-06
2.19234e-06
-1.20831e-07
2.17142e-06
4.76254e-06
-4.03546e-08
1.62436e-06
8.4476e-06
8.03222e-08
1.05543e-06
1.25591e-05
2.1203e-07
5.68167e-07
1.49977e-05
2.69355e-07
1.99292e-07
1.48592e-05
2.17421e-07
9.03624e-06
8.03044e-08
-1.91446e-07
-6.38063e-06
-1.72196e-09
-3.16381e-07
-1.47688e-05
-7.18073e-08
-2.84031e-07
-1.93881e-05
-9.11178e-08
-1.53502e-07
-2.15977e-05
-6.51281e-08
2.03118e-08
-2.26005e-05
-3.15306e-08
2.29572e-07
-2.30374e-05
-9.80389e-09
4.74597e-07
-2.31436e-05
2.29923e-10
7.6268e-07
-2.30117e-05
5.27553e-10
1.09696e-06
-2.26749e-05
-6.86049e-09
1.48043e-06
-2.21589e-05
-1.96235e-08
1.91445e-06
-2.1481e-05
-3.61393e-08
2.39801e-06
-2.0653e-05
-5.52594e-08
2.92444e-06
-1.96837e-05
-7.4494e-08
3.48085e-06
-1.85818e-05
-9.11832e-08
4.0495e-06
-1.73571e-05
-1.03517e-07
4.6081e-06
-1.60198e-05
-1.11451e-07
5.1296e-06
-1.45808e-05
-1.1813e-07
5.59148e-06
-1.30601e-05
-1.22131e-07
5.97988e-06
-1.1476e-05
-1.16421e-07
6.2937e-06
-9.84104e-06
-1.11207e-07
6.52615e-06
-8.16684e-06
-1.12849e-07
6.64812e-06
-6.50843e-06
-1.2437e-07
6.61553e-06
-4.92114e-06
-1.42847e-07
6.39678e-06
-3.47475e-06
-1.62342e-07
5.98922e-06
-2.18657e-06
-1.73468e-07
5.41971e-06
-1.00177e-06
-1.7202e-07
4.7626e-06
1.67263e-07
-1.57494e-07
4.18617e-06
1.2742e-06
-1.28587e-07
3.52631e-06
2.93947e-06
-8.6948e-08
2.88749e-06
5.424e-06
-2.21335e-08
2.27139e-06
8.9857e-06
7.85838e-08
1.63679e-06
1.29984e-05
1.95818e-07
1.00693e-06
1.53745e-05
2.5364e-07
4.32999e-07
1.52171e-05
2.17043e-07
9.36675e-06
1.02531e-07
3.98504e-08
-6.38128e-06
-3.89488e-08
3.1037e-07
-1.49032e-05
-1.35937e-07
7.68732e-07
-1.96615e-05
-1.84957e-07
1.32074e-06
-2.1978e-05
-1.71611e-07
1.88431e-06
-2.30312e-05
-1.32813e-07
2.42881e-06
-2.3488e-05
-9.39162e-08
2.95101e-06
-2.36009e-05
-6.49635e-08
3.46396e-06
-2.34764e-05
-4.83238e-08
3.96952e-06
-2.31374e-05
-4.31151e-08
4.46991e-06
-2.26121e-05
-4.72078e-08
4.96471e-06
-2.1917e-05
-5.88513e-08
5.4531e-06
-2.10643e-05
-7.71908e-08
5.93127e-06
-2.00615e-05
-1.00466e-07
6.39135e-06
-1.89162e-05
-1.25805e-07
6.82131e-06
-1.76371e-05
-1.50073e-07
7.20357e-06
-1.62299e-05
-1.72256e-07
7.51905e-06
-1.47141e-05
-1.8217e-07
7.7445e-06
-1.31145e-05
-1.711e-07
7.89831e-06
-1.14705e-05
-1.59361e-07
7.99252e-06
-9.78955e-06
-1.45756e-07
8.03153e-06
-8.07286e-06
-1.33045e-07
8.00406e-06
-6.35796e-06
-1.2304e-07
7.86575e-06
-4.66631e-06
-1.16548e-07
7.56236e-06
-3.05154e-06
-1.19799e-07
7.05911e-06
-1.55688e-06
-1.2635e-07
6.39958e-06
-2.11811e-07
-1.30275e-07
5.75998e-06
9.34389e-07
-1.27263e-07
4.9979e-06
2.14595e-06
-1.09236e-07
4.19286e-06
3.82262e-06
-7.74388e-08
3.40702e-06
6.23541e-06
-2.47495e-08
2.66151e-06
9.67086e-06
6.11603e-08
1.91568e-06
1.35763e-05
1.68564e-07
1.16392e-06
1.58963e-05
2.3078e-07
4.58096e-07
1.57143e-05
2.09734e-07
9.7199e-06
1.04923e-07
2.45199e-07
-6.54801e-06
-7.81894e-08
8.60905e-07
-1.53314e-05
-1.87305e-07
1.64846e-06
-2.02169e-05
-2.31986e-07
2.46451e-06
-2.25658e-05
-2.28125e-07
3.24676e-06
-2.36139e-05
-1.99466e-07
3.97232e-06
-2.4051e-05
-1.6247e-07
4.63632e-06
-2.41367e-05
-1.28068e-07
5.24663e-06
-2.39855e-05
-1.01152e-07
5.80422e-06
-2.3611e-05
-8.39272e-08
6.31308e-06
-2.30443e-05
-7.65455e-08
6.77584e-06
-2.23008e-05
-7.88237e-08
7.19407e-06
-2.13919e-05
-9.04065e-08
7.56777e-06
-2.03241e-05
-1.10916e-07
7.89557e-06
-1.91053e-05
-1.3851e-07
8.16882e-06
-1.77412e-05
-1.68939e-07
8.38423e-06
-1.62523e-05
-1.92789e-07
8.5365e-06
-1.46565e-05
-2.09697e-07
8.62589e-06
-1.29746e-05
-2.29128e-07
8.63914e-06
-1.12429e-05
-2.40733e-07
8.57525e-06
-9.48463e-06
-2.40915e-07
8.43839e-06
-7.70568e-06
-2.30243e-07
8.23736e-06
-5.9441e-06
-2.12807e-07
7.96739e-06
-4.20251e-06
-1.93853e-07
7.58397e-06
-2.48923e-06
-1.7895e-07
7.07146e-06
-8.75147e-07
-1.69303e-07
6.56563e-06
4.55538e-07
-1.61598e-07
6.01981e-06
1.6266e-06
-1.46486e-07
5.26541e-06
3.02754e-06
-1.27306e-07
4.42246e-06
4.76421e-06
-9.88318e-08
3.56397e-06
7.14662e-06
-5.29959e-08
2.73187e-06
1.04795e-05
2.31489e-08
1.91647e-06
1.42686e-05
1.22867e-07
1.11738e-06
1.65083e-05
1.86562e-07
3.81681e-07
1.62745e-05
1.74745e-07
1.00225e-05
7.9071e-08
4.04847e-07
-6.85644e-06
-9.58055e-08
1.15124e-06
-1.58875e-05
-1.89897e-07
1.95705e-06
-2.07943e-05
-2.2809e-07
2.7407e-06
-2.31125e-05
-2.36807e-07
3.48793e-06
-2.41338e-05
-2.2719e-07
4.18886e-06
-2.45449e-05
-2.06824e-07
4.83338e-06
-2.45995e-05
-1.81583e-07
5.41541e-06
-2.44112e-05
-1.56098e-07
5.92947e-06
-2.39908e-05
-1.33988e-07
6.37651e-06
-2.33739e-05
-1.17284e-07
6.75988e-06
-2.2576e-05
-1.07956e-07
7.08612e-06
-2.16107e-05
-1.07169e-07
7.35592e-06
-2.04774e-05
-1.16252e-07
7.57635e-06
-1.91894e-05
-1.35981e-07
7.7574e-06
-1.77581e-05
-1.63682e-07
7.89112e-06
-1.61875e-05
-1.98076e-07
7.96391e-06
-1.44882e-05
-2.40607e-07
7.96842e-06
-1.26971e-05
-2.81523e-07
7.89904e-06
-1.08589e-05
-3.14036e-07
7.75678e-06
-9.00822e-06
-3.33603e-07
7.55026e-06
-7.16044e-06
-3.3821e-07
7.28927e-06
-5.35299e-06
-3.29624e-07
6.9853e-06
-3.58673e-06
-3.11357e-07
6.64334e-06
-1.85879e-06
-2.88113e-07
6.28397e-06
-2.52327e-07
-2.63204e-07
5.97774e-06
1.00215e-06
-2.40221e-07
5.49837e-06
2.32379e-06
-2.17744e-07
4.89902e-06
3.81975e-06
-1.92868e-07
4.19171e-06
5.63281e-06
-1.61473e-07
3.39392e-06
8.05979e-06
-1.15779e-07
2.54674e-06
1.13686e-05
-4.24086e-08
1.70236e-06
1.50551e-05
5.7416e-08
9.19249e-07
1.71577e-05
1.32826e-07
2.3567e-07
1.68183e-05
1.38226e-07
1.021e-05
4.80066e-08
3.91269e-07
-7.14611e-06
-1.01152e-07
1.03715e-06
-1.63424e-05
-1.90773e-07
1.69437e-06
-2.12221e-05
-2.29317e-07
2.32307e-06
-2.34993e-05
-2.41724e-07
2.9282e-06
-2.44973e-05
-2.41475e-07
3.50954e-06
-2.48923e-05
-2.33828e-07
4.0591e-06
-2.49282e-05
-2.20817e-07
4.56338e-06
-2.47106e-05
-2.04816e-07
5.01502e-06
-2.42541e-05
-1.88288e-07
5.4112e-06
-2.3597e-05
-1.73011e-07
5.74109e-06
-2.27443e-05
-1.6151e-07
6.00239e-06
-2.17163e-05
-1.55678e-07
6.2161e-06
-2.05325e-05
-1.58426e-07
6.38582e-06
-1.91877e-05
-1.71261e-07
6.50094e-06
-1.76803e-05
-1.92795e-07
6.55411e-06
-1.60155e-05
-2.24897e-07
6.54334e-06
-1.42125e-05
-2.64646e-07
6.46682e-06
-1.23121e-05
-3.08261e-07
6.32801e-06
-1.03697e-05
-3.5011e-07
6.13875e-06
-8.43486e-06
-3.83868e-07
5.91628e-06
-6.53323e-06
-4.04536e-07
5.6701e-06
-4.69587e-06
-4.10799e-07
5.42715e-06
-2.93996e-06
-4.03772e-07
5.2235e-06
-1.26865e-06
-3.86566e-07
5.06794e-06
2.66187e-07
-3.6318e-07
4.87103e-06
1.53755e-06
-3.38931e-07
4.56524e-06
2.94173e-06
-3.12867e-07
4.15032e-06
4.51668e-06
-2.83129e-07
3.58848e-06
6.44011e-06
-2.47087e-07
2.8565e-06
8.98793e-06
-1.98187e-07
2.00181e-06
1.23473e-05
-1.26094e-07
1.17394e-06
1.59149e-05
-3.37424e-08
5.14753e-07
1.77865e-05
2.788e-08
2.56258e-08
1.72709e-05
3.31487e-08
1.0262e-05
-2.6483e-08
3.17736e-07
-7.36786e-06
-9.56385e-08
7.69308e-07
-1.66173e-05
-1.76452e-07
1.21e-06
-2.14513e-05
-2.11347e-07
1.63953e-06
-2.37042e-05
-2.24592e-07
2.07552e-06
-2.47023e-05
-2.30926e-07
2.517e-06
-2.51006e-05
-2.33164e-07
2.95277e-06
-2.51327e-05
-2.31201e-07
3.36457e-06
-2.48967e-05
-2.25761e-07
3.73977e-06
-2.44115e-05
-2.17841e-07
4.06169e-06
-2.37109e-05
-2.08013e-07
4.3397e-06
-2.28217e-05
-2.00613e-07
4.56943e-06
-2.17483e-05
-1.97766e-07
4.73264e-06
-2.05001e-05
-1.95744e-07
4.82251e-06
-1.90801e-05
-1.97461e-07
4.84177e-06
-1.7491e-05
-2.08524e-07
4.80023e-06
-1.5744e-05
-2.29998e-07
4.71024e-06
-1.38599e-05
-2.625e-07
4.57994e-06
-1.18775e-05
-3.04115e-07
4.41611e-06
-9.85599e-06
-3.49757e-07
4.23189e-06
-7.8582e-06
-3.92238e-07
4.04747e-06
-5.9238e-06
-4.24791e-07
3.87361e-06
-4.07799e-06
-4.43823e-07
3.73468e-06
-2.3515e-06
-4.49375e-07
3.66142e-06
-7.51826e-07
-4.43503e-07
3.67298e-06
6.84069e-07
-4.29523e-07