/*--------------------------------*- C++ -*----------------------------------*\
| =========                 |                                                 |
| \\      /  F ield         | OpenFOAM: The Open Source CFD Toolbox           |
|  \\    /   O peration     | Version:  2.0.x                                 |
|   \\  /    A nd           | Web:      www.OpenFOAM.org                      |
|    \\/     M anipulation  |                                                 |
\*---------------------------------------------------------------------------*/
FoamFile
{
    version     2.0;
    format      ascii;
    class       volScalarField;
    location    "450";
    object      T;
}
// * * * * * * * * * * * * * * * * * * * * * * * * * * * * * * * * * * * * * //

dimensions      [0 0 0 1 0 0 0];

internalField   nonuniform List<scalar> 
78750
(
288.728
289.464
289.764
289.862
289.915
289.99
290.081
290.174
290.261
290.338
290.409
290.475
290.539
290.599
290.655
290.708
290.756
290.801
290.842
290.879
290.913
290.943
290.968
290.988
291.004
291.015
291.019
291.018
291.018
291.017
291.017
291.025
291.16
292.698
300.328
288.463
288.889
289.113
289.293
289.501
289.714
289.913
290.087
290.243
290.392
290.537
290.675
290.812
290.939
291.057
291.164
291.261
291.349
291.431
291.505
291.569
291.622
291.667
291.701
291.725
291.736
291.734
291.71
291.663
291.589
291.48
291.406
291.589
293.598
300.828
288.336
288.687
289.025
289.372
289.706
290
290.243
290.45
290.636
290.806
290.961
291.101
291.224
291.337
291.444
291.545
291.638
291.723
291.801
291.871
291.931
291.981
292.021
292.051
292.07
292.079
292.076
292.054
292.014
291.945
291.872
291.934
292.729
295.303
301.608
288.417
288.924
289.374
289.745
290.032
290.257
290.447
290.615
290.764
290.898
291.024
291.144
291.261
291.373
291.479
291.58
291.673
291.76
291.84
291.913
291.978
292.034
292.079
292.114
292.138
292.153
292.153
292.143
292.119
292.094
292.126
292.48
293.787
296.635
302.557
288.427
288.951
289.405
289.772
290.054
290.276
290.463
290.63
290.784
290.931
291.07
291.198
291.316
291.428
291.533
291.633
291.727
291.815
291.898
291.974
292.045
292.11
292.169
292.216
292.249
292.266
292.269
292.261
292.246
292.25
292.349
292.937
294.53
297.512
303.178
288.46
289.032
289.505
289.867
290.133
290.341
290.516
290.674
290.819
290.954
291.08
291.203
291.32
291.432
291.537
291.636
291.73
291.818
291.9
291.977
292.047
292.113
292.175
292.227
292.268
292.297
292.318
292.334
292.359
292.434
292.703
293.52
295.291
298.314
303.709
288.463
289.038
289.512
289.874
290.14
290.347
290.521
290.678
290.822
290.956
291.082
291.202
291.318
291.43
291.536
291.636
291.729
291.816
291.898
291.976
292.047
292.114
292.175
292.234
292.288
292.335
292.373
292.411
292.462
292.574
292.898
293.823
295.717
298.769
303.963
288.477
289.077
289.566
289.929
290.19
290.391
290.561
290.714
290.854
290.985
291.108
291.225
291.335
291.44
291.54
291.635
291.725
291.811
291.892
291.969
292.041
292.109
292.174
292.238
292.299
292.357
292.414
292.481
292.58
292.766
293.201
294.249
296.231
299.28
304.239
288.485
289.102
289.608
289.985
290.255
290.462
290.636
290.792
290.934
291.066
291.19
291.307
291.417
291.521
291.619
291.712
291.8
291.881
291.957
292.027
292.091
292.152
292.209
292.265
292.322
292.379
292.442
292.523
292.65
292.895
293.444
294.643
296.719
299.735
304.464
288.501
289.152
289.684
290.075
290.351
290.565
290.746
290.909
291.059
291.197
291.326
291.447
291.561
291.669
291.77
291.865
291.952
292.031
292.102
292.165
292.221
292.27
292.315
292.357
292.399
292.445
292.499
292.576
292.704
292.956
293.528
294.782
296.921
299.942
304.56
288.522
289.208
289.765
290.17
290.455
290.676
290.866
291.037
291.194
291.34
291.477
291.605
291.725
291.839
291.944
292.04
292.126
292.203
292.271
292.329
292.377
292.418
292.453
292.483
292.514
292.55
292.597
292.674
292.81
293.078
293.673
294.957
297.135
300.165
304.678
288.541
289.264
289.845
290.26
290.553
290.782
290.981
291.162
291.329
291.485
291.631
291.768
291.896
292.015
292.123
292.221
292.309
292.386
292.452
292.506
292.548
292.581
292.607
292.629
292.652
292.681
292.728
292.814
292.98
293.315
294.03
295.44
297.631
300.577
304.894
288.569
289.33
289.926
290.345
290.64
290.876
291.082
291.271
291.446
291.611
291.766
291.912
292.047
292.172
292.286
292.39
292.479
292.555
292.619
292.668
292.705
292.732
292.753
292.771
292.793
292.824
292.876
292.973
293.163
293.553
294.365
295.872
298.051
300.91
305.073
288.581
289.354
289.948
290.358
290.65
290.886
291.096
291.288
291.468
291.638
291.798
291.95
292.094
292.23
292.358
292.479
292.589
292.684
292.756
292.807
292.844
292.869
292.889
292.909
292.934
292.971
293.031
293.136
293.328
293.722
294.548
296.073
298.243
301.066
305.158
288.588
289.359
289.949
290.358
290.65
290.886
291.095
291.288
291.468
291.638
291.799
291.951
292.095
292.231
292.36
292.481
292.594
292.699
292.795
292.879
292.939
292.978
293.009
293.039
293.074
293.122
293.197
293.319
293.534
293.949
294.788
296.315
298.449
301.217
305.238
288.588
289.356
289.938
290.343
290.632
290.868
291.077
291.27
291.451
291.622
291.784
291.938
292.083
292.221
292.352
292.474
292.589
292.696
292.795
292.887
292.971
293.045
293.102
293.149
293.199
293.262
293.354
293.504
293.765
294.257
295.183
296.751
298.809
301.454
305.347
288.574
289.314
289.879
290.277
290.565
290.797
291.004
291.195
291.374
291.543
291.704
291.857
292.004
292.144
292.279
292.408
292.53
292.647
292.759
292.865
292.965
293.057
293.142
293.221
293.293
293.371
293.477
293.641
293.923
294.456
295.44
297.045
299.054
301.608
305.411
288.552
289.261
289.816
290.216
290.503
290.733
290.936
291.123
291.299
291.465
291.624
291.776
291.921
292.058
292.188
292.312
292.431
292.548
292.663
292.779
292.897
293.016
293.128
293.233
293.333
293.439
293.563
293.735
294.022
294.559
295.545
297.149
299.129
301.639
305.414
288.542
289.242
289.803
290.208
290.499
290.73
290.932
291.119
291.295
291.462
291.621
291.774
291.919
292.057
292.186
292.308
292.422
292.53
292.634
292.736
292.842
292.953
293.072
293.197
293.324
293.455
293.599
293.782
294.077
294.622
295.616
297.222
299.179
301.655
305.413
288.539
289.241
289.803
290.214
290.51
290.745
290.951
291.142
291.322
291.494
291.66
291.819
291.971
292.116
292.252
292.377
292.491
292.592
292.685
292.772
292.86
292.954
293.061
293.181
293.316
293.458
293.612
293.81
294.122
294.674
295.675
297.289
299.233
301.684
305.423
288.544
289.259
289.837
290.258
290.561
290.802
291.015
291.213
291.4
291.58
291.755
291.923
292.086
292.241
292.387
292.52
292.638
292.74
292.826
292.899
292.969
293.042
293.127
293.232
293.355
293.49
293.647
293.859
294.184
294.743
295.747
297.364
299.292
301.72
305.446
288.558
289.296
289.883
290.305
290.609
290.854
291.07
291.271
291.463
291.649
291.83
292.006
292.179
292.345
292.503
292.65
292.782
292.894
292.985
293.058
293.12
293.182
293.252
293.339
293.446
293.573
293.735
293.961
294.305
294.888
295.909
297.527
299.409
301.783
305.489
288.567
289.316
289.901
290.319
290.62
290.862
291.077
291.277
291.47
291.657
291.84
292.022
292.203
292.381
292.554
292.72
292.871
293.001
293.108
293.193
293.26
293.321
293.386
293.466
293.565
293.691
293.863
294.115
294.508
295.162
296.259
297.907
299.706
301.954
305.571
288.574
289.328
289.911
290.325
290.624
290.865
291.079
291.28
291.472
291.659
291.844
292.025
292.205
292.385
292.562
292.736
292.905
293.063
293.195
293.297
293.378
293.447
293.515
293.593
293.692
293.826
294.018
294.307
294.765
295.512
296.696
298.345
300.037
302.155
305.671
288.58
289.337
289.92
290.33
290.625
290.865
291.079
291.279
291.472
291.659
291.843
292.026
292.207
292.386
292.563
292.737
292.906
293.068
293.219
293.356
293.466
293.552
293.631
293.714
293.816
293.956
294.161
294.479
294.992
295.818
297.068
298.704
300.309
302.322
305.738
288.58
289.338
289.921
290.33
290.624
290.861
291.072
291.27
291.461
291.649
291.834
292.018
292.199
292.375
292.548
292.719
292.888
293.053
293.211
293.358
293.493
293.613
293.714
293.81
293.917
294.058
294.264
294.584
295.107
295.957
297.237
298.824
300.369
302.338
305.737
288.578
289.337
289.923
290.337
290.632
290.868
291.079
291.278
291.469
291.658
291.844
292.025
292.199
292.365
292.526
292.682
292.837
292.994
293.157
293.322
293.482
293.63
293.763
293.882
294.003
294.147
294.341
294.638
295.131
295.958
297.202
298.773
300.311
302.277
305.7
288.58
289.349
289.954
290.381
290.684
290.925
291.142
291.347
291.549
291.748
291.941
292.123
292.287
292.436
292.575
292.709
292.844
292.983
293.129
293.286
293.453
293.626
293.792
293.947
294.098
294.263
294.465
294.748
295.199
295.969
297.201
298.762
300.284
302.238
305.679
288.597
289.405
290.044
290.492
290.807
291.06
291.291
291.513
291.735
291.954
292.162
292.347
292.5
292.626
292.733
292.832
292.933
293.04
293.159
293.295
293.451
293.625
293.808
293.99
294.177
294.38
294.617
294.929
295.387
296.113
297.248
298.765
300.282
302.238
305.681
288.629
289.493
290.168
290.636
290.967
291.238
291.489
291.736
291.983
292.227
292.452
292.641
292.782
292.883
292.96
293.026
293.094
293.171
293.261
293.371
293.504
293.663
293.841
294.034
294.245
294.484
294.767
295.136
295.656
296.431
297.554
298.952
300.375
302.287
305.705
288.662
289.575
290.271
290.746
291.087
291.373
291.642
291.907
292.175
292.442
292.691
292.892
293.029
293.122
293.186
293.237
293.286
293.343
293.413
293.5
293.609
293.743
293.904
294.091
294.311
294.574
294.898
295.323
295.914
296.752
297.889
299.219
300.577
302.44
305.767
288.683
289.609
290.298
290.764
291.101
291.386
291.655
291.922
292.193
292.465
292.729
292.967
293.156
293.274
293.353
293.41
293.461
293.514
293.574
293.647
293.738
293.849
293.986
294.155
294.369
294.637
294.98
295.438
296.073
296.952
298.094
299.375
300.697
302.542
305.807
288.685
289.609
290.297
290.762
291.099
291.384
291.654
291.921
292.191
292.462
292.726
292.966
293.174
293.339
293.451
293.532
293.597
293.657
293.721
293.792
293.876
293.977
294.1
294.257
294.457
294.715
295.054
295.516
296.161
297.051
298.184
299.424
300.719
302.556
305.808
288.675
289.584
290.263
290.726
291.063
291.35
291.62
291.884
292.148
292.415
292.683
292.94
293.169
293.36
293.504
293.61
293.693
293.766
293.837
293.913
293.999
294.1
294.221
294.373
294.567
294.817
295.147
295.598
296.233
297.111
298.224
299.43
300.703
302.543
305.802
288.654
289.533
290.198
290.655
290.99
291.275
291.54
291.8
292.061
292.329
292.606
292.884
293.142
293.361
293.533
293.663
293.764
293.849
293.93
294.012
294.104
294.208
294.333
294.487
294.682
294.932
295.26
295.704
296.324
297.179
298.26
299.43
300.684
302.529
305.792
288.645
289.518
290.181
290.635
290.966
291.249
291.515
291.778
292.044
292.319
292.603
292.883
293.145
293.376
293.565
293.711
293.826
293.922
294.01
294.1
294.198
294.308
294.438
294.598
294.801
295.059
295.393
295.841
296.455
297.287
298.323
299.44
300.682
302.53
305.789
288.645
289.523
290.191
290.647
290.98
291.266
291.54
291.814
292.098
292.394
292.695
292.984
293.243
293.462
293.642
293.784
293.9
294
294.093
294.188
294.289
294.404
294.541
294.711
294.925
295.197
295.548
296.011
296.63
297.446
298.435
299.489
300.685
302.532
305.79
288.665
289.574
290.254
290.71
291.046
291.342
291.631
291.929
292.24
292.563
292.886
293.185
293.433
293.626
293.777
293.899
294.003
294.097
294.189
294.284
294.387
294.506
294.648
294.826
295.051
295.339
295.711
296.196
296.831
297.64
298.589
299.589
300.743
302.573
305.808
288.701
289.656
290.352
290.809
291.148
291.455
291.76
292.077
292.411
292.756
293.095
293.398
293.642
293.819
293.944
294.045
294.133
294.218
294.304
294.396
294.499
294.618
294.763
294.946
295.18
295.481
295.871
296.376
297.025
297.828
298.743
299.701
300.832
302.654
305.843
288.729
289.708
290.4
290.857
291.201
291.513
291.824
292.144
292.477
292.815
293.144
293.445
293.703
293.91
294.071
294.19
294.28
294.358
294.438
294.526
294.624
294.741
294.886
295.07
295.309
295.62
296.023
296.543
297.2
297.994
298.878
299.801
300.913
302.73
305.873
288.735
289.71
290.392
290.843
291.186
291.497
291.803
292.112
292.424
292.734
293.04
293.335
293.611
293.857
294.064
294.232
294.368
294.482
294.579
294.67
294.766
294.878
295.017
295.196
295.429
295.739
296.144
296.669
297.328
298.113
298.975
299.875
300.975
302.786
305.891
288.709
289.619
290.261
290.7
291.032
291.322
291.596
291.861
292.121
292.379
292.639
292.908
293.19
293.482
293.772
294.042
294.277
294.471
294.634
294.774
294.901
295.028
295.172
295.349
295.578
295.88
296.277
296.792
297.438
298.199
299.03
299.902
300.988
302.8
305.889
288.622
289.402
289.985
290.408
290.723
290.984
291.221
291.441
291.651
291.855
292.059
292.271
292.502
292.76
293.054
293.39
293.741
294.076
294.385
294.661
294.896
295.095
295.287
295.493
295.73
296.031
296.428
296.942
297.581
298.325
299.129
299.975
301.03
302.796
305.87
288.533
289.202
289.753
290.171
290.48
290.732
290.96
291.176
291.385
291.59
291.794
291.998
292.2
292.398
292.592
292.782
293.011
293.309
293.671
294.099
294.531
294.912
295.231
295.511
295.816
296.163
296.566
297.066
297.685
298.405
299.183
300.007
301.041
302.784
305.839
288.503
289.161
289.718
290.143
290.458
290.714
290.944
291.163
291.374
291.582
291.79
291.999
292.21
292.414
292.602
292.773
292.936
293.104
293.304
293.585
294
294.477
294.967
295.426
295.808
296.196
296.651
297.176
297.793
298.491
299.242
300.042
301.046
302.744
305.809
288.499
289.169
289.747
290.189
290.516
290.781
291.023
291.257
291.488
291.724
291.973
292.24
292.511
292.752
292.941
293.077
293.179
293.272
293.39
293.575
293.847
294.196
294.647
295.177
295.704
296.191
296.71
297.276
297.907
298.601
299.337
300.122
301.112
302.789
305.826
288.541
289.308
289.947
290.407
290.744
291.029
291.298
291.565
291.842
292.143
292.484
292.863
293.225
293.492
293.64
293.71
293.741
293.77
293.823
293.923
294.085
294.343
294.72
295.19
295.697
296.215
296.746
297.339
297.996
298.7
299.435
300.213
301.188
302.845
305.862
288.637
289.525
290.195
290.646
290.985
291.288
291.587
291.897
292.235
292.628
293.106
293.64
294.077
294.29
294.323
294.312
294.305
294.321
294.367
294.452
294.59
294.796
295.076
295.444
295.909
296.447
297.033
297.646
298.293
298.972
299.679
300.445
301.437
303.115
306.02
288.696
289.615
290.26
290.689
291.022
291.329
291.638
291.963
292.324
292.749
293.257
293.794
294.233
294.495
294.627
294.66
294.685
294.724
294.787
294.88
295.016
295.204
295.456
295.784
296.191
296.672
297.221
297.819
298.459
299.134
299.839
300.602
301.611
303.331
306.142
288.7
289.618
290.26
290.68
291.004
291.305
291.605
291.904
292.208
292.546
292.956
293.461
294.02
294.459
294.717
294.858
294.932
294.991
295.06
295.154
295.282
295.452
295.682
295.992
296.391
296.874
297.412
298
298.631
299.296
299.987
300.732
301.73
303.437
306.159
288.669
289.545
290.163
290.569
290.875
291.148
291.408
291.667
291.942
292.236
292.562
292.945
293.431
294.049
294.581
294.898
295.06
295.157
295.238
295.326
295.434
295.575
295.768
296.037
296.396
296.846
297.375
297.968
298.609
299.283
299.978
300.722
301.715
303.417
306.137
288.664
289.534
290.145
290.547
290.851
291.125
291.391
291.659
291.934
292.226
292.551
292.928
293.387
293.935
294.498
294.925
295.17
295.305
295.403
295.492
295.586
295.703
295.864
296.091
296.41
296.832
297.334
297.922
298.575
299.262
299.966
300.706
301.691
303.388
306.118
288.668
289.533
290.142
290.543
290.846
291.119
291.381
291.64
291.903
292.178
292.484
292.843
293.279
293.797
294.356
294.863
295.226
295.444
295.576
295.671
295.758
295.856
295.983
296.167
296.439
296.826
297.318
297.9
298.557
299.256
299.963
300.703
301.684
303.377
306.108
288.65
289.478
290.065
290.458
290.752
291.009
291.249
291.479
291.703
291.926
292.153
292.393
292.666
293.017
293.499
294.077
294.68
295.214
295.595
295.809
295.943
296.048
296.16
296.31
296.528
296.849
297.314
297.887
298.545
299.247
299.956
300.695
301.662
303.332
306.077
288.594
289.358
289.93
290.322
290.609
290.852
291.077
291.293
291.502
291.706
291.907
292.105
292.302
292.502
292.725
293.065
293.569
294.233
294.95
295.566
295.923
296.15
296.318
296.477
296.676
296.958
297.355
297.893
298.547
299.261
299.981
300.721
301.678
303.329
306.067
288.58
289.331
289.905
290.302
290.594
290.84
291.067
291.283
291.491
291.694
291.893
292.09
292.285
292.48
292.679
292.898
293.172
293.565
294.167
294.921
295.636
296.097
296.385
296.605
296.827
297.107
297.493
298.016
298.665
299.377
300.091
300.819
301.757
303.378
306.08
288.572
289.315
289.885
290.284
290.578
290.826
291.052
291.265
291.47
291.669
291.863
292.056
292.25
292.449
292.657
292.883
293.148
293.49
293.962
294.585
295.306
295.949
296.405
296.735
297.021
297.338
297.744
298.268
298.902
299.586
300.266
300.971
301.889
303.473
306.122
288.561
289.284
289.847
290.246
290.542
290.79
291.017
291.229
291.433
291.63
291.822
292.011
292.202
292.397
292.603
292.83
293.096
293.44
293.912
294.533
295.225
295.891
296.441
296.868
297.229
297.598
298.034
298.566
299.178
299.821
300.467
301.151
302.051
303.595
306.173
288.56
289.281
289.839
290.235
290.528
290.774
290.999
291.211
291.415
291.613
291.805
291.993
292.178
292.363
292.555
292.764
293.01
293.336
293.81
294.466
295.211
295.902
296.48
296.944
297.347
297.753
298.211
298.742
299.334
299.955
300.587
301.263
302.155
303.681
306.217
288.557
289.268
289.823
290.221
290.515
290.761
290.986
291.198
291.403
291.602
291.796
291.985
292.169
292.351
292.534
292.726
292.941
293.213
293.61
294.236
295.072
295.873
296.51
297.035
297.489
297.933
298.412
298.946
299.522
300.12
300.734
301.399
302.287
303.804
306.271
288.548
289.242
289.789
290.187
290.483
290.73
290.956
291.169
291.375
291.575
291.771
291.963
292.151
292.335
292.516
292.696
292.881
293.091
293.373
293.825
294.562
295.527
296.434
297.035
297.522
297.986
298.473
299.002
299.569
300.159
300.769
301.432
302.314
303.814
306.269
288.537
289.216
289.758
290.157
290.455
290.702
290.927
291.142
291.349
291.551
291.748
291.94
292.129
292.314
292.496
292.675
292.85
293.024
293.207
293.446
293.858
294.593
295.652
296.698
297.412
297.926
298.414
298.947
299.522
300.121
300.736
301.396
302.265
303.747
306.224
288.524
289.184
289.719
290.119
290.417
290.664
290.889
291.103
291.311
291.515
291.716
291.915
292.11
292.301
292.487
292.668
292.845
293.018
293.191
293.369
293.585
293.957
294.697
295.81
296.904
297.735
298.311
298.831
299.393
300.004
300.642
301.316
302.178
303.644
306.168
288.514
289.165
289.701
290.103
290.402
290.648
290.873
291.088
291.298
291.504
291.706
291.905
292.103
292.299
292.493
292.682
292.863
293.036
293.201
293.363
293.534
293.737
294.035
294.662
295.696
296.952
298.079
298.767
299.354
299.968
300.616
301.295
302.158
303.622
306.153
288.505
289.157
289.698
290.102
290.401
290.647
290.871
291.085
291.295
291.503
291.711
291.916
292.119
292.32
292.518
292.714
292.905
293.091
293.27
293.438
293.591
293.73
293.876
294.069
294.425
295.136
296.282
297.696
298.889
299.77
300.428
301.039
301.825
303.224
305.92
288.501
289.16
289.716
290.129
290.432
290.682
290.911
291.13
291.344
291.553
291.76
291.965
292.17
292.375
292.579
292.784
292.987
293.187
293.386
293.581
293.766
293.934
294.08
294.199
294.322
294.488
294.816
295.487
296.556
297.779
298.948
300.063
301.154
302.67
305.655
288.516
289.216
289.795
290.211
290.514
290.767
291.001
291.227
291.449
291.665
291.874
292.077
292.279
292.482
292.689
292.9
293.118
293.342
293.575
293.823
294.075
294.309
294.504
294.647
294.735
294.771
294.83
295.107
295.852
297.216
298.764
300.039
301.151
302.687
305.679
288.553
289.312
289.92
290.347
290.659
290.923
291.174
291.419
291.652
291.868
292.071
292.265
292.457
292.653
292.859
293.079
293.32
293.589
293.903
294.276
294.688
295.078
295.35
295.499
295.547
295.554
295.61
295.955
296.949
298.363
299.669
300.694
301.718
303.305
306.058
288.607
289.431
290.068
290.506
290.83
291.117
291.395
291.669
291.923
292.141
292.325
292.489
292.652
292.824
293.015
293.233
293.492
293.823
294.285
294.942
295.687
296.284
296.642
296.867
297.053
297.316
297.745
298.397
299.277
300.212
301.047
301.835
302.817
304.35
306.573
288.664
289.558
290.23
290.684
291.028
291.347
291.671
291.988
292.26
292.466
292.619
292.745
292.867
293.001
293.158
293.35
293.601
293.955
294.512
295.325
296.26
297.08
297.65
298.03
298.367
298.775
299.3
299.924
300.589
301.232
301.861
302.556
303.493
304.906
306.769
288.699
289.641
290.342
290.813
291.18
291.534
291.903
292.26
292.551
292.748
292.884
292.987
293.083
293.187
293.308
293.459
293.653
293.925
294.317
295.013
295.997
297.035
297.832
298.381
298.838
299.308
299.821
300.361
300.904
301.451
302.023
302.681
303.585
304.946
306.755
288.723
289.7
290.408
290.877
291.251
291.618
291.998
292.365
292.681
292.925
293.081
293.19
293.283
293.378
293.481
293.601
293.745
293.927
294.176
294.527
295.124
296.041
297.107
297.993
298.69
299.272
299.803
300.338
300.873
301.405
301.955
302.588
303.462
304.811
306.666
288.724
289.702
290.407
290.874
291.245
291.609
291.981
292.344
292.672
292.943
293.151
293.308
293.424
293.529
293.634
293.748
293.873
294.013
294.173
294.366
294.614
294.985
295.605
296.423
297.297
298.161
298.961
299.671
300.306
300.898
301.491
302.137
302.999
304.381
306.467
288.698
289.627
290.315
290.783
291.153
291.504
291.859
292.216
292.562
292.877
293.139
293.343
293.507
293.635
293.752
293.871
293.996
294.13
294.273
294.424
294.585
294.766
295.002
295.358
295.892
296.604
297.423
298.273
299.103
299.889
300.637
301.39
302.306
303.764
306.203
288.655
289.524
290.179
290.638
290.997
291.33
291.665
292.009
292.36
292.707
293.031
293.307
293.526
293.705
293.852
293.981
294.111
294.247
294.39
294.539
294.691
294.844
295.003
295.19
295.436
295.797
296.339
297.067
297.926
298.857
299.811
300.746
301.76
303.285
306
288.618
289.424
290.037
290.473
290.813
291.123
291.431
291.747
292.076
292.422
292.782
293.135
293.449
293.7
293.903
294.075
294.222
294.364
294.509
294.66
294.815
294.97
295.127
295.286
295.463
295.692
296.019
296.519
297.265
298.242
299.36
300.447
301.531
303.088
305.937
288.58
289.324
289.897
290.308
290.625
290.906
291.178
291.452
291.739
292.049
292.395
292.779
293.181
293.556
293.864
294.105
294.306
294.477
294.637
294.795
294.955
295.117
295.284
295.454
295.627
295.814
296.062
296.464
297.116
298.085
299.267
300.41
301.516
303.082
305.939
288.539
289.221
289.759
290.15
290.445
290.699
290.939
291.178
291.424
291.688
291.986
292.334
292.743
293.202
293.643
294.012
294.3
294.533
294.733
294.912
295.083
295.256
295.435
295.617
295.807
296.014
296.264
296.614
297.205
298.155
299.365
300.522
301.632
303.193
305.993
288.513
289.173
289.711
290.103
290.395
290.642
290.877
291.11
291.351
291.605
291.88
292.185
292.526
292.908
293.349
293.799
294.198
294.521
294.78
294.996
295.194
295.388
295.58
295.773
295.974
296.197
296.469
296.851
297.457
298.398
299.574
300.669
301.735
303.281
306.037
288.51
289.171
289.711
290.105
290.398
290.646
290.881
291.117
291.362
291.626
291.913
292.222
292.55
292.905
293.297
293.716
294.13
294.501
294.81
295.069
295.302
295.522
295.731
295.935
296.14
296.362
296.634
297.016
297.615
298.53
299.664
300.71
301.752
303.297
306.046
288.52
289.215
289.78
290.182
290.478
290.732
290.978
291.233
291.509
291.814
292.141
292.473
292.796
293.119
293.46
293.828
294.209
294.569
294.892
295.185
295.454
295.702
295.933
296.151
296.365
296.585
296.841
297.197
297.753
298.612
299.696
300.721
301.759
303.307
306.053
288.567
289.344
289.952
290.366
290.67
290.941
291.215
291.513
291.851
292.233
292.634
292.998
293.305
293.581
293.858
294.151
294.457
294.765
295.069
295.369
295.656
295.93
296.188
296.431
296.663
296.898
297.156
297.493
298
298.769
299.751
300.733
301.771
303.335
306.08
288.638
289.508
290.15
290.574
290.894
291.193
291.512
291.879
292.31
292.795
293.261
293.625
293.878
294.079
294.288
294.514
294.757
295.017
295.302
295.6
295.897
296.191
296.479
296.758
297.029
297.301
297.595
297.951
298.433
299.101
299.924
300.788
301.799
303.394
306.125
288.697
289.632
290.287
290.712
291.043
291.364
291.704
292.086
292.526
293.002
293.462
293.853
294.155
294.389
294.583
294.779
294.992
295.235
295.515
295.818
296.126
296.439
296.758
297.075
297.393
297.718
298.066
298.464
298.947
299.545
300.239
300.989
301.931
303.503
306.173
288.711
289.659
290.309
290.728
291.056
291.372
291.701
292.051
292.43
292.85
293.306
293.753
294.139
294.441
294.688
294.916
295.146
295.398
295.69
296.009
296.337
296.675
297.024
297.38
297.742
298.116
298.513
298.948
299.438
299.992
300.603
301.274
302.156
303.674
306.234
288.7
289.613
290.242
290.647
290.947
291.215
291.473
291.734
292.018
292.349
292.749
293.215
293.721
294.2
294.595
294.901
295.162
295.433
295.745
296.087
296.444
296.816
297.201
297.597
298.003
298.42
298.855
299.316
299.81
300.339
300.905
301.527
302.365
303.825
306.276
288.647
289.495
290.112
290.519
290.819
291.077
291.317
291.551
291.784
292.021
292.287
292.622
293.059
293.581
294.131
294.619
295.011
295.352
295.692
296.049
296.427
296.822
297.239
297.672
298.119
298.579
299.053
299.544
300.052
300.579
301.129
301.735
302.55
303.965
306.321
288.63
289.467
290.093
290.511
290.813
291.07
291.309
291.541
291.771
292.001
292.231
292.472
292.74
293.102
293.577
294.123
294.651
295.102
295.495
295.88
296.291
296.736
297.199
297.665
298.129
298.608
299.101
299.609
300.131
300.664
301.217
301.823
302.634
304.023
306.335
288.627
289.462
290.087
290.509
290.813
291.068
291.306
291.536
291.762
291.989
292.222
292.461
292.713
292.994
293.344
293.791
294.307
294.807
295.236
295.625
296.03
296.485
296.988
297.52
298.06
298.588
299.099
299.611
300.134
300.67
301.224
301.834
302.643
304.024
306.332
288.622
289.454
290.086
290.51
290.814
291.071
291.307
291.536
291.762
291.986
292.211
292.445
292.697
292.972
293.29
293.673
294.126
294.603
295.034
295.413
295.783
296.196
296.677
297.223
297.806
298.396
298.986
299.561
300.121
300.668
301.225
301.835
302.645
304.023
306.325
288.619
289.449
290.087
290.519
290.829
291.087
291.322
291.547
291.767
291.987
292.209
292.432
292.659
292.904
293.186
293.528
293.942
294.407
294.857
295.246
295.593
295.949
296.362
296.858
297.432
298.052
298.687
299.318
299.94
300.557
301.169
301.811
302.629
303.996
306.304
288.615
289.447
290.087
290.528
290.844
291.106
291.343
291.569
291.789
292.004
292.219
292.434
292.654
292.882
293.123
293.398
293.743
294.176
294.646
295.081
295.447
295.774
296.123
296.539
297.047
297.64
298.293
298.974
299.66
300.338
301.009
301.701
302.558
303.947
306.283
288.613
289.448
290.099
290.548
290.869
291.135
291.377
291.608
291.832
292.052
292.268
292.479
292.687
292.898
293.121
293.367
293.651
293.996
294.428
294.888
295.308
295.659
295.975
296.321
296.746
297.268
297.885
298.573
299.294
300.017
300.732
301.467
302.376
303.832
306.247
288.619
289.47
290.137
290.594
290.92
291.19
291.436
291.672
291.902
292.129
292.351
292.567
292.778
292.985
293.192
293.411
293.656
293.949
294.302
294.714
295.149
295.549
295.891
296.211
296.567
297.008
297.553
298.191
298.895
299.626
300.363
301.124
302.063
303.58
306.15
288.633
289.513
290.194
290.653
290.98
291.251
291.502
291.745
291.985
292.222
292.455
292.68
292.898
293.11
293.322
293.543
293.783
294.055
294.366
294.731
295.149
295.555
295.899
296.207
296.53
296.915
297.393
297.977
298.65
299.384
300.136
300.904
301.839
303.377
306.066
288.658
289.583
290.289
290.756
291.084
291.357
291.61
291.856
292.1
292.342
292.579
292.809
293.03
293.243
293.456
293.679
293.923
294.197
294.503
294.847
295.235
295.631
295.982
296.281
296.573
296.918
297.376
297.942
298.614
299.352
300.105
300.863
301.793
303.345
306.054
288.686
289.655
290.383
290.856
291.188
291.466
291.725
291.977
292.227
292.471
292.71
292.941
293.165
293.382
293.601
293.832
294.089
294.384
294.715
295.078
295.466
295.849
296.191
296.486
296.762
297.064
297.446
297.963
298.622
299.358
300.107
300.864
301.795
303.35
306.061
288.721
289.742
290.494
290.973
291.308
291.589
291.852
292.106
292.354
292.593
292.823
293.044
293.26
293.473
293.69
293.926
294.196
294.516
294.895
295.318
295.749
296.15
296.502
296.807
297.093
297.4
297.776
298.263
298.863
299.541
300.238
300.96
301.879
303.439
306.115
288.753
289.825
290.608
291.101
291.442
291.729
291.998
292.256
292.502
292.732
292.948
293.152
293.348
293.544
293.746
293.966
294.226
294.543
294.936
295.404
295.899
296.363
296.768
297.123
297.455
297.799
298.195
298.675
299.241
299.86
300.498
301.173
302.061
303.595
306.178
288.792
289.924
290.74
291.245
291.593
291.889
292.165
292.426
292.669
292.89
293.092
293.28
293.458
293.633
293.812
294.005
294.23
294.512
294.881
295.363
295.903
296.419
296.888
297.314
297.714
298.116
298.551
299.04
299.585
300.165
300.761
301.398
302.25
303.736
306.226
288.825
290.015
290.869
291.392
291.752
292.057
292.339
292.597
292.831
293.041
293.231
293.405
293.567
293.722
293.877
294.04
294.224
294.451
294.76
295.197
295.763
296.368
296.894
297.363
297.81
298.262
298.736
299.245
299.791
300.362
300.947
301.575
302.414
303.865
306.272
288.858
290.105
290.999
291.543
291.92
292.241
292.529
292.784
293.008
293.206
293.386
293.549
293.699
293.839
293.972
294.107
294.251
294.422
294.647
294.968
295.431
296.051
296.741
297.338
297.811
298.272
298.759
299.281
299.834
300.404
300.987
301.618
302.461
303.902
306.282
288.879
290.178
291.113
291.683
292.083
292.423
292.721
292.975
293.191
293.379
293.547
293.7
293.839
293.968
294.087
294.202
294.319
294.45
294.609
294.808
295.084
295.496
296.081
296.802
297.536
298.176
298.733
299.268
299.822
300.389
300.962
301.585
302.428
303.868
306.259
288.899
290.256
291.229
291.826
292.254
292.621
292.935
293.197
293.419
293.611
293.778
293.923
294.05
294.164
294.268
294.366
294.461
294.564
294.681
294.819
294.99
295.212
295.528
295.989
296.599
297.293
298.002
298.67
299.288
299.899
300.545
301.242
302.116
303.578
306.114
288.923
290.341
291.334
291.951
292.41
292.806
293.138
293.413
293.651
293.863
294.05
294.209
294.34
294.45
294.543
294.627
294.712
294.807
294.908
295.012
295.118
295.252
295.448
295.724
296.128
296.679
297.353
298.092
298.855
299.627
300.382
301.122
302.018
303.51
306.099
288.952
290.42
291.41
292.042
292.535
292.961
293.311
293.602
293.863
294.107
294.329
294.519
294.674
294.799
294.902
294.993
295.084