/*--------------------------------*- C++ -*----------------------------------*\
| =========                 |                                                 |
| \\      /  F ield         | OpenFOAM: The Open Source CFD Toolbox           |
|  \\    /   O peration     | Version:  2.0.x                                 |
|   \\  /    A nd           | Web:      www.OpenFOAM.org                      |
|    \\/     M anipulation  |                                                 |
\*---------------------------------------------------------------------------*/
FoamFile
{
    version     2.0;
    format      ascii;
    class       volVectorField;
    location    "450";
    object      U;
}
// * * * * * * * * * * * * * * * * * * * * * * * * * * * * * * * * * * * * * //

dimensions      [0 1 -1 0 0 0 0];

internalField   nonuniform List<vector> 
78750
(
(-0.00304154 0.0178157 0.0281112)
(-0.0117031 0.0133106 0.0450337)
(-0.019976 -0.000650695 0.0462286)
(-0.0256128 -0.0151297 0.0454724)
(-0.0268126 -0.0272124 0.0449428)
(-0.0260454 -0.0374814 0.0448786)
(-0.0210798 -0.0463607 0.0442236)
(-0.014519 -0.0523568 0.0435464)
(-0.00662359 -0.0560916 0.0428639)
(0.00193046 -0.0583304 0.0421973)
(0.0106463 -0.0592025 0.0417951)
(0.0195606 -0.0591131 0.0415337)
(0.0281755 -0.0585427 0.0413881)
(0.036782 -0.0571051 0.0412794)
(0.0450771 -0.0551979 0.0411062)
(0.0528418 -0.0531825 0.0408608)
(0.059976 -0.050252 0.0408075)
(0.0664923 -0.0473082 0.0406681)
(0.072045 -0.0468152 0.0395936)
(0.0770254 -0.0448321 0.0386704)
(0.0809519 -0.0422473 0.0384448)
(0.0846112 -0.034938 0.0385646)
(0.0860202 -0.031326 0.0385354)
(0.0872241 -0.0273968 0.0384636)
(0.0871171 -0.022448 0.0385061)
(0.0856283 -0.0172509 0.03855)
(0.0830955 -0.0119902 0.0386615)
(0.0789098 -0.00642671 0.0388048)
(0.0732492 -0.000477184 0.0390675)
(0.0660882 0.00666818 0.0393264)
(0.057743 0.0126323 0.0400781)
(0.0473858 0.0186576 0.0413071)
(0.0350525 0.0246588 0.0433166)
(0.0213368 0.0325975 0.0453496)
(0.00662848 0.0349381 0.030479)
(0.000206153 0.0260243 0.0206522)
(0.000974505 0.0366299 0.0347179)
(0.000970828 0.0233945 0.0382001)
(0.00393037 -0.00782552 0.0370355)
(0.00648208 -0.0360059 0.0347655)
(0.0124502 -0.067469 0.0308775)
(0.0176973 -0.0916051 0.0291966)
(0.0227405 -0.105862 0.0278271)
(0.0278797 -0.113736 0.0268868)
(0.0331142 -0.117802 0.0262499)
(0.0377598 -0.119259 0.0257553)
(0.0436031 -0.11799 0.0252537)
(0.0472532 -0.116503 0.0250586)
(0.0520949 -0.113196 0.0250133)
(0.055852 -0.108721 0.0251128)
(0.0592755 -0.103337 0.0252563)
(0.062171 -0.0973066 0.0253915)
(0.0651051 -0.0896333 0.0259512)
(0.0665109 -0.0803236 0.0271767)
(0.0679321 -0.070977 0.0283311)
(0.0682512 -0.0626245 0.0287995)
(0.0682433 -0.0538447 0.0292415)
(0.0677402 -0.0443443 0.029716)
(0.0669564 -0.0339617 0.030316)
(0.0652289 -0.0229462 0.0310086)
(0.0630314 -0.0119994 0.0311575)
(0.0605045 -0.000598115 0.0313109)
(0.0555888 0.0172409 0.0318183)
(0.0522229 0.0260922 0.0319776)
(0.0462805 0.038911 0.0325016)
(0.0396233 0.0538873 0.0331286)
(0.0320005 0.069628 0.0343271)
(0.0223981 0.0869062 0.0362916)
(0.0116955 0.102263 0.0358167)
(0.00325982 0.0926469 0.0251102)
(-0.000136423 -0.00313509 0.0152573)
(0.00271209 -0.0245046 0.0269156)
(0.00805145 -0.0581514 0.0291326)
(0.0143962 -0.0945419 0.0268749)
(0.0206286 -0.125062 0.0236974)
(0.025753 -0.144378 0.0213746)
(0.0291365 -0.151007 0.0201907)
(0.0316015 -0.153992 0.0193187)
(0.0337794 -0.154841 0.0186196)
(0.0350904 -0.154292 0.0183384)
(0.036507 -0.151946 0.0182594)
(0.0374621 -0.148171 0.0184282)
(0.0383981 -0.143134 0.0187637)
(0.0390668 -0.137244 0.0192202)
(0.0396644 -0.13052 0.0197801)
(0.0401607 -0.123078 0.0204181)
(0.0406416 -0.115009 0.0210951)
(0.0406178 -0.106159 0.0218816)
(0.0415077 -0.0953921 0.0232305)
(0.041581 -0.0846349 0.0246033)
(0.0416483 -0.0737689 0.0259331)
(0.0416053 -0.0627319 0.0271554)
(0.0410996 -0.0518975 0.028079)
(0.0398083 -0.0407608 0.0288223)
(0.0386069 -0.0290975 0.0294831)
(0.0372181 -0.0166768 0.0300025)
(0.0347773 0.00187811 0.0306257)
(0.0329229 0.0129692 0.0308906)
(0.0303747 0.0289664 0.0312689)
(0.0271796 0.0474644 0.031538)
(0.0231773 0.0681771 0.0316014)
(0.0182425 0.0910775 0.0317761)
(0.0118177 0.114566 0.03193)
(0.00552673 0.128105 0.0296902)
(0.00124655 0.108218 0.0197593)
(-0.000113498 -0.0130778 0.0111431)
(0.00196322 -0.0565299 0.0174108)
(0.00550465 -0.099237 0.0163066)
(0.00918801 -0.129037 0.0142799)
(0.011966 -0.14475 0.0131303)
(0.0137946 -0.152608 0.012619)
(0.0152325 -0.157455 0.0124319)
(0.0164912 -0.160292 0.0124575)
(0.0176248 -0.161248 0.0126326)
(0.0185106 -0.160696 0.0128583)
(0.0193794 -0.158751 0.0132557)
(0.0201596 -0.155686 0.0137611)
(0.0209054 -0.151644 0.0143587)
(0.0216155 -0.146728 0.0150286)
(0.0222679 -0.140979 0.0157691)
(0.022856 -0.13443 0.0165801)
(0.0233509 -0.127128 0.0174474)
(0.0237567 -0.11914 0.0183389)
(0.0240738 -0.11038 0.0192428)
(0.0243957 -0.100583 0.0202295)
(0.024671 -0.0896895 0.0213676)
(0.0246576 -0.0773876 0.0227842)
(0.0246717 -0.0632863 0.0246565)
(0.0244078 -0.0486786 0.0265367)
(0.0237482 -0.0343776 0.0281382)
(0.022913 -0.0198637 0.0294521)
(0.0217793 -0.00107755 0.030653)
(0.020776 0.011585 0.0312742)
(0.0190081 0.0298727 0.0320255)
(0.0172627 0.0506881 0.0324711)
(0.0146577 0.0746634 0.032474)
(0.0113959 0.102907 0.0319524)
(0.00691604 0.128842 0.0304149)
(0.00272317 0.139714 0.0265501)
(0.000290166 0.108816 0.0161279)
(0.000178114 -0.0255343 0.00804775)
(0.00227828 -0.0818283 0.0121542)
(0.00475475 -0.125179 0.011966)
(0.00696093 -0.152634 0.0111957)
(0.00878927 -0.168783 0.0105565)
(0.0103956 -0.177934 0.0101127)
(0.0117804 -0.182587 0.00981507)
(0.0130519 -0.184251 0.00964839)
(0.0140441 -0.184038 0.00960631)
(0.0150254 -0.182357 0.00969979)
(0.0158254 -0.179441 0.00992719)
(0.0165186 -0.175418 0.0102575)
(0.0170827 -0.170378 0.0106817)
(0.0175301 -0.164313 0.0112239)
(0.017862 -0.157295 0.0118978)
(0.0180866 -0.149389 0.0127176)
(0.0182102 -0.140632 0.0136996)
(0.0182289 -0.131052 0.0148546)
(0.0181371 -0.120713 0.0161748)
(0.0179335 -0.109721 0.0176253)
(0.0176213 -0.0981573 0.0191587)
(0.017227 -0.0860342 0.0207418)
(0.0167793 -0.0731727 0.022384)
(0.0163248 -0.0593977 0.0241213)
(0.0157972 -0.0452088 0.0258411)
(0.0152678 -0.0315118 0.0273731)
(0.0150338 -0.0153666 0.0288813)
(0.0145256 0.00359017 0.0299894)
(0.0138778 0.01822 0.0305963)
(0.0129666 0.042172 0.0313363)
(0.0114713 0.0722059 0.0316744)
(0.00858812 0.105841 0.0311231)
(0.00528828 0.134218 0.0291741)
(0.00206966 0.143889 0.0249291)
(0.000198415 0.107156 0.0147293)
(0.000100466 -0.0356439 0.0061916)
(0.00128082 -0.0986983 0.00838188)
(0.00277571 -0.140836 0.00736179)
(0.00437298 -0.164373 0.00628637)
(0.00577996 -0.176297 0.00566707)
(0.00696665 -0.182457 0.00537402)
(0.00795681 -0.185626 0.00529113)
(0.00878639 -0.186832 0.00534)
(0.00944173 -0.186509 0.00545661)
(0.0100494 -0.184785 0.00565687)
(0.010552 -0.181841 0.00593771)
(0.0109857 -0.177804 0.00630393)
(0.0113554 -0.172786 0.00676616)
(0.0116751 -0.166899 0.00732809)
(0.0119592 -0.160235 0.00798744)
(0.0122159 -0.152856 0.00874896)
(0.0124497 -0.144788 0.00962748)
(0.0126641 -0.13603 0.0106475)
(0.0128558 -0.126538 0.0118458)
(0.0130158 -0.116227 0.0132672)
(0.0131289 -0.10499 0.0149538)
(0.013171 -0.0927463 0.0169292)
(0.0131168 -0.0795247 0.0191818)
(0.0129522 -0.0656354 0.0216231)
(0.0126423 -0.0520457 0.0240009)
(0.012179 -0.0399412 0.0260592)
(0.0117031 -0.0262784 0.0279098)
(0.0113574 -0.00817461 0.0299973)
(0.0108309 0.00818795 0.0313844)
(0.00998819 0.0342925 0.0324816)
(0.00920078 0.0698439 0.0324695)
(0.00736898 0.10731 0.0313838)
(0.00450954 0.137901 0.0283963)
(0.00184654 0.146404 0.0236038)
(0.000246885 0.104636 0.013131)
(7.85501e-05 -0.0406025 0.00405361)
(0.00107021 -0.107338 0.00509752)
(0.00246704 -0.150988 0.00443357)
(0.00402624 -0.175883 0.0038515)
(0.00552695 -0.189103 0.00349546)
(0.00693104 -0.196088 0.00326311)
(0.00821241 -0.199573 0.00310229)
(0.00938648 -0.200745 0.00300045)
(0.0103549 -0.200285 0.00295288)
(0.0112867 -0.198392 0.00294146)
(0.0120737 -0.195294 0.00299057)
(0.0127933 -0.191125 0.00310963)
(0.0134399 -0.185985 0.00329859)
(0.0140169 -0.179957 0.00354832)
(0.0145382 -0.173121 0.00385214)
(0.0150237 -0.165529 0.00421665)
(0.0154609 -0.157163 0.00467507)
(0.0158222 -0.148013 0.00526445)
(0.0160825 -0.138102 0.00603527)
(0.0162309 -0.127475 0.00703357)
(0.0162703 -0.116147 0.00830886)
(0.0162152 -0.104078 0.00991668)
(0.0160814 -0.0911884 0.0119133)
(0.0158657 -0.0774292 0.0143302)
(0.0155145 -0.063029 0.0170998)
(0.0148943 -0.0488967 0.0199347)
(0.0140774 -0.0360053 0.0225003)
(0.0133117 -0.020669 0.0254414)
(0.0120876 0.000324632 0.028835)
(0.010899 0.0200111 0.0309735)
(0.00979981 0.0572726 0.0325236)
(0.00782357 0.10411 0.031485)
(0.00511952 0.139057 0.0285351)
(0.00234607 0.148494 0.0234666)
(0.000448858 0.105173 0.0129526)
(9.60836e-05 -0.0461183 0.00257758)
(0.00117813 -0.117013 0.00278906)
(0.0028423 -0.16076 0.00200244)
(0.004731 -0.183943 0.00137266)
(0.00655821 -0.195389 0.000952312)
(0.00826518 -0.20118 0.000659587)
(0.00981584 -0.203951 0.000435511)
(0.011231 -0.20469 0.000249537)
(0.0123828 -0.204019 0.000100574)
(0.013489 -0.201991 -6.02531e-05)
(0.0143931 -0.198785 -0.000197849)
(0.0152015 -0.194524 -0.000312672)
(0.0159096 -0.189314 -0.000405799)
(0.016528 -0.183269 -0.000482748)
(0.0170658 -0.176642 -0.000594607)
(0.0174729 -0.169333 -0.000721272)
(0.0177049 -0.161036 -0.000762357)
(0.0177902 -0.151723 -0.000673843)
(0.017735 -0.141482 -0.000289896)
(0.0175735 -0.130466 0.000383759)
(0.0173104 -0.118766 0.00137868)
(0.0169526 -0.106421 0.00272943)
(0.0165078 -0.0934444 0.00447168)
(0.0159843 -0.0798232 0.0066509)
(0.0153799 -0.0657291 0.00927273)
(0.0146492 -0.0518988 0.0121875)
(0.0138658 -0.0390003 0.0153634)
(0.0128772 -0.0234419 0.0188808)
(0.0116211 -0.00202034 0.0231564)
(0.0105127 0.0181232 0.0262687)
(0.00902761 0.0566575 0.0294735)
(0.00709974 0.105198 0.0300203)
(0.00442244 0.143727 0.0273654)
(0.00192902 0.153549 0.022318)
(0.000313949 0.107219 0.0119702)
(4.59743e-05 -0.0500388 0.00126501)
(0.00114623 -0.12522 0.00109823)
(0.00293887 -0.171733 0.00073309)
(0.00499602 -0.196524 0.000442813)
(0.00706205 -0.208587 0.000151852)
(0.0090608 -0.214398 -0.000150659)
(0.0109445 -0.216872 -0.000466194)
(0.0127251 -0.21716 -0.000782579)
(0.0142164 -0.216115 -0.00107707)
(0.0156477 -0.213712 -0.00143401)
(0.0168148 -0.210105 -0.001798)
(0.0178163 -0.205413 -0.00216621)
(0.0186433 -0.199774 -0.00253795)
(0.0193141 -0.193206 -0.00289505)
(0.0198008 -0.185349 -0.00312993)
(0.0200677 -0.176168 -0.00319016)
(0.0201276 -0.166111 -0.00317915)
(0.0200196 -0.155446 -0.00321524)
(0.0197664 -0.144401 -0.00278921)
(0.0194025 -0.132919 -0.00221415)
(0.018933 -0.120977 -0.00141421)
(0.0183724 -0.108547 -0.000314231)
(0.0177295 -0.0956 0.00114437)
(0.0170099 -0.0821009 0.00301632)
(0.0162071 -0.0681859 0.00531398)
(0.015285 -0.0545217 0.00788394)
(0.014271 -0.0417481 0.010545)
(0.0130332 -0.026691 0.0138609)
(0.011456 -0.00665772 0.0182508)
(0.010068 0.012911 0.0220073)
(0.00834049 0.051866 0.0268444)
(0.00651439 0.10466 0.0282179)
(0.00401493 0.145723 0.0260016)
(0.0018903 0.155792 0.0209085)
(0.000408591 0.107637 0.0107892)
(0.000142051 -0.0543872 0.000388861)
(0.00162222 -0.134267 0.000249116)
(0.00376587 -0.181956 0.000176446)
(0.00603677 -0.206055 -4.1745e-05)
(0.00824183 -0.217188 -0.000399502)
(0.0103271 -0.222179 -0.000827403)
(0.0124185 -0.223828 -0.00130539)
(0.0141695 -0.223492 -0.00171393)
(0.0159347 -0.221561 -0.00220182)
(0.0173706 -0.218239 -0.00271562)
(0.0186115 -0.213716 -0.0032601)
(0.0196225 -0.208134 -0.0038403)
(0.0203881 -0.201675 -0.00447613)
(0.020864 -0.194299 -0.00520375)
(0.0210875 -0.185731 -0.0059994)
(0.0211249 -0.176193 -0.00681129)
(0.0210611 -0.165917 -0.0075329)
(0.020884 -0.155063 -0.00786143)
(0.0206244 -0.143672 -0.00829887)
(0.0202412 -0.131796 -0.00852161)
(0.0197496 -0.119471 -0.00846313)
(0.0191554 -0.106732 -0.00803679)
(0.0184723 -0.0936073 -0.00716657)
(0.0177201 -0.0801048 -0.00580363)
(0.0169136 -0.0663054 -0.00394035)
(0.0160306 -0.0525624 -0.00170076)
(0.015052 -0.039058 0.00078128)
(0.0138515 -0.0231427 0.00416766)
(0.0121469 -0.00232168 0.00915638)
(0.010568 0.0163566 0.0133938)
(0.0084306 0.0534236 0.0192479)
(0.00645904 0.105896 0.0252176)
(0.0041238 0.148499 0.0245394)
(0.00199873 0.159263 0.0200574)
(0.000488299 0.109959 0.0103188)
(0.000148736 -0.0600879 -7.33377e-05)
(0.00167033 -0.145807 0.000186216)
(0.00373583 -0.195446 0.000610897)
(0.00585244 -0.219711 0.00067827)
(0.00791443 -0.230493 0.000438224)
(0.00990118 -0.234991 2.24844e-05)
(0.0119396 -0.236021 -0.00051372)
(0.0136973 -0.235043 -0.00101635)
(0.0154662 -0.232218 -0.00163688)
(0.0169549 -0.227881 -0.00230996)
(0.0182654 -0.222264 -0.00303583)
(0.0193436 -0.215438 -0.00382738)
(0.0202064 -0.207224 -0.00470459)
(0.0207116 -0.197729 -0.00565898)
(0.0211536 -0.187655 -0.00663814)
(0.0213134 -0.177195 -0.00768334)
(0.0213137 -0.166251 -0.0087491)
(0.0211435 -0.15476 -0.00985651)
(0.0207982 -0.142667 -0.0109714)
(0.0202719 -0.130064 -0.0118803)
(0.0195932 -0.117102 -0.0124733)
(0.0187924 -0.103915 -0.0126517)
(0.0179153 -0.0905903 -0.0123448)
(0.0170108 -0.0771698 -0.0115288)
(0.0161167 -0.0636916 -0.0102169)
(0.0152268 -0.0502428 -0.00849447)
(0.0142931 -0.0365562 -0.00641719)
(0.0132175 -0.0203331 -0.00339122)
(0.01182 0.000923218 0.00134476)
(0.0104935 0.0200357 0.00556856)
(0.00847735 0.0564076 0.0140958)
(0.00602304 0.108892 0.0204871)
(0.00348326 0.15305 0.0213843)
(0.00138192 0.164178 0.0174422)
(8.49078e-05 0.111947 0.00777391)
(0.000243001 -0.0653481 -0.000133561)
(0.001848 -0.155234 0.000613907)
(0.00373051 -0.205008 0.00127623)
(0.00551197 -0.2282 0.00140507)
(0.00719961 -0.238098 0.00118457)
(0.00883827 -0.241883 0.000770058)
(0.0105294 -0.24219 0.000223201)
(0.0120215 -0.240428 -0.000323423)
(0.0135084 -0.236631 -0.000998176)
(0.014749 -0.231339 -0.00171659)
(0.0158427 -0.224692 -0.00251389)
(0.0166533 -0.216867 -0.00348329)
(0.0173373 -0.207895 -0.00478288)
(0.0179633 -0.198057 -0.00633215)
(0.0183248 -0.187491 -0.00815895)
(0.0184948 -0.176143 -0.0100225)
(0.0185191 -0.164053 -0.0119459)
(0.0183208 -0.151272 -0.0138783)
(0.0179085 -0.13785 -0.0156974)
(0.0172967 -0.123985 -0.0172765)
(0.016516 -0.110074 -0.0185072)
(0.0156283 -0.0964073 -0.0192884)
(0.0147003 -0.0830987 -0.0195549)
(0.013789 -0.0701382 -0.0192988)
(0.0129321 -0.0573715 -0.018533)
(0.0121239 -0.0444409 -0.0172443)
(0.0113199 -0.0305482 -0.0152927)
(0.0104279 -0.014082 -0.0121707)
(0.00947304 0.00656959 -0.00684916)
(0.00846966 0.0267551 -0.0012236)
(0.00660945 0.0652364 0.00729657)
(0.00415888 0.117431 0.015055)
(0.00188023 0.159042 0.0170238)
(0.000278738 0.16779 0.0135553)
(-0.000185904 0.111404 0.00611261)
(0.000229587 -0.0717521 0.000293449)
(0.00140571 -0.16598 0.00162872)
(0.00259458 -0.215556 0.00250164)
(0.00367155 -0.237711 0.0027963)
(0.0047006 -0.246885 0.00274234)
(0.00581812 -0.250119 0.0024776)
(0.00693561 -0.249944 0.0021082)
(0.00808033 -0.247412 0.00160641)
(0.00916094 -0.242794 0.000972533)
(0.0102703 -0.236326 0.000185484)
(0.0109336 -0.228331 -0.000699305)
(0.01204 -0.219092 -0.0021041)
(0.0126497 -0.209142 -0.00354451)
(0.0130956 -0.198403 -0.00504124)
(0.0133902 -0.186697 -0.00667401)
(0.0135533 -0.174026 -0.00859141)
(0.0134254 -0.160529 -0.0107666)
(0.0130966 -0.146383 -0.0131069)
(0.0125954 -0.131735 -0.0154475)
(0.0119554 -0.116788 -0.0175629)
(0.0112053 -0.102154 -0.0193002)
(0.0104025 -0.0882673 -0.0205566)
(0.00960417 -0.0751788 -0.0212795)
(0.00884987 -0.0627489 -0.0214886)
(0.00815882 -0.0506514 -0.0212008)
(0.0075261 -0.0383682 -0.0203634)
(0.00691875 -0.0251459 -0.0188089)
(0.00633585 -0.00952879 -0.0160304)
(0.00574852 0.0104768 -0.0115809)
(0.00513465 0.0330834 -0.00611557)
(0.00394715 0.0726134 0.00272491)
(0.00236107 0.123474 0.010936)
(0.000873503 0.161565 0.0136434)
(1.60558e-05 0.167819 0.0114425)
(-0.000170913 0.107969 0.00417266)
(0.000187971 -0.0752409 0.000828511)
(0.00068505 -0.169895 0.00225091)
(0.00101858 -0.218082 0.00298179)
(0.00129268 -0.239395 0.00331897)
(0.00158694 -0.248343 0.00344775)
(0.00198533 -0.251553 0.00344395)
(0.00242402 -0.251295 0.00332333)
(0.00299908 -0.248377 0.00302403)
(0.00358627 -0.243414 0.00265743)
(0.0041001 -0.236784 0.00223154)
(0.00492513 -0.228642 0.00138144)
(0.00526078 -0.21924 0.000478079)
(0.00570706 -0.208517 -0.000480448)
(0.00615397 -0.196562 -0.00178434)
(0.0063743 -0.183515 -0.00347274)
(0.00647825 -0.169559 -0.00558144)
(0.00646632 -0.154874 -0.0081187)
(0.00635715 -0.139709 -0.0110537)
(0.00617936 -0.124305 -0.0142251)
(0.00590166 -0.108775 -0.0170974)
(0.0055744 -0.0938861 -0.0195391)
(0.00523168 -0.0801957 -0.0214088)
(0.00491267 -0.0676171 -0.0226269)
(0.00463392 -0.0558764 -0.0232494)
(0.00440836 -0.0445522 -0.023343)
(0.00423925 -0.0330583 -0.0229145)
(0.00410781 -0.0205452 -0.0218748)
(0.00397115 -0.00564829 -0.0197906)
(0.00386562 0.0121533 -0.0163946)
(0.00361527 0.0357793 -0.0110803)
(0.00290134 0.0757987 -0.00193766)
(0.00191977 0.125712 0.00708317)
(0.000903946 0.162035 0.0105342)
(0.000220331 0.166565 0.00836305)
(7.81043e-05 0.105222 0.0029575)
(5.0076e-05 -0.0765791 0.00117086)
(9.70551e-05 -0.170955 0.00252988)
(6.88437e-05 -0.218736 0.00317407)
(6.24069e-05 -0.239871 0.00354515)
(9.33805e-05 -0.248778 0.00376452)
(0.0002167 -0.251991 0.00389628)
(0.000371909 -0.2518 0.00400572)
(0.000636874 -0.249034 0.00405445)
(0.000925412 -0.244015 0.00400858)
(0.00132833 -0.237105 0.00386764)
(0.00168978 -0.228645 0.00376267)
(0.00208159 -0.218707 0.0036549)
(0.00255031 -0.207482 0.00309063)
(0.00292721 -0.195132 0.00216407)
(0.00320297 -0.181773 0.000960863)
(0.00349096 -0.167533 -0.000699942)
(0.00376016 -0.152521 -0.00278799)
(0.00400551 -0.136863 -0.00525715)
(0.00416981 -0.120789 -0.00806055)
(0.00433002 -0.104895 -0.0112763)
(0.00443335 -0.089755 -0.0145163)
(0.00440511 -0.0762057 -0.0174877)
(0.00433275 -0.0638833 -0.0196309)
(0.00426361 -0.0525554 -0.0210287)
(0.00423605 -0.0417991 -0.021795)
(0.00427062 -0.0310023 -0.0220112)
(0.00434895 -0.0192288 -0.0216955)
(0.00443398 -0.004754 -0.0205143)
(0.00448623 0.0125646 -0.018296)
(0.00423708 0.0383577 -0.0139003)
(0.00337054 0.0794095 -0.00585037)
(0.0021085 0.129203 0.00309077)
(0.00098429 0.163762 0.0073134)
(0.000239537 0.167023 0.00675008)
(3.0973e-05 0.103765 0.00221099)
(-3.29533e-05 -0.0762948 0.00155976)
(-0.000446927 -0.170434 0.00258873)
(-0.000874743 -0.218168 0.00299147)
(-0.0011577 -0.239498 0.00343705)
(-0.00131984 -0.248617 0.00381738)
(-0.00144835 -0.251916 0.00406143)
(-0.00136216 -0.251812 0.00442159)
(-0.00128126 -0.24907 0.00487682)
(-0.00105651 -0.244097 0.00504352)
(-0.000733955 -0.237225 0.00490947)
(-0.000252793 -0.228731 0.0046811)
(0.000233855 -0.218807 0.00444745)
(0.000789405 -0.207594 0.00406976)
(0.00131214 -0.195199 0.00348756)
(0.00195126 -0.181841 0.00254761)
(0.00252257 -0.167576 0.00128201)
(0.00308431 -0.152554 -0.000362732)
(0.00363749 -0.1369 -0.00238517)
(0.0041882 -0.120704 -0.00474046)
(0.00470447 -0.104081 -0.00733757)
(0.00511225 -0.0875371 -0.00999961)
(0.00540704 -0.0723454 -0.0126288)
(0.0054783 -0.0594727 -0.0154732)
(0.0054646 -0.0482601 -0.0175894)
(0.00537139 -0.0380242 -0.0189867)
(0.00525341 -0.0279383 -0.0197549)
(0.00510813 -0.0164469 -0.0197965)
(0.00490036 -0.00209682 -0.0190403)
(0.00466319 0.0154826 -0.0173583)
(0.00420235 0.0444144 -0.0135296)
(0.0032959 0.086481 -0.00686254)
(0.00196765 0.135084 0.00085345)
(0.000878254 0.166358 0.00481983)
(0.000253083 0.167605 0.00484096)
(3.81524e-06 0.103075 0.00178238)
(-8.20366e-05 -0.0735874 0.00117102)
(-0.000815484 -0.166088 0.00129997)
(-0.00133356 -0.214491 0.00129022)
(-0.00158759 -0.23718 0.0018092)
(-0.00171249 -0.24731 0.00239684)
(-0.0018198 -0.251403 0.00312642)
(-0.00179549 -0.251903 0.00358714)
(-0.00167806 -0.24982 0.00393837)
(-0.00140181 -0.245509 0.0043029)
(-0.00103082 -0.239228 0.00471845)
(-0.000529218 -0.23116 0.00511707)
(8.24201e-05 -0.221465 0.00546169)
(0.000786504 -0.210301 0.00572233)
(0.00155685 -0.197829 0.0058363)
(0.00235823 -0.184216 0.00571659)
(0.00317179 -0.169641 0.00525943)
(0.0039724 -0.154294 0.00437559)
(0.0047484 -0.138359 0.00301942)
(0.00547204 -0.121939 0.00119576)
(0.00615007 -0.105126 -0.00115517)
(0.00676034 -0.0881844 -0.00400005)
(0.00721842 -0.0720862 -0.00698771)
(0.00746525 -0.0574263 -0.00968345)
(0.00741292 -0.0447957 -0.0122318)
(0.00714618 -0.0337016 -0.0142492)
(0.00669394 -0.0231054 -0.0156269)
(0.00607813 -0.011309 -0.0162604)
(0.00542635 0.00321533 -0.0161052)
(0.0047879 0.0207428 -0.0150633)
(0.00398008 0.0500115 -0.0120744)
(0.0032 0.0921283 -0.00654503)
(0.00224404 0.139453 0.000102584)
(0.00137755 0.168468 0.00378583)
(0.000716293 0.168506 0.00428507)
(0.000206648 0.103358 0.00185948)
(-0.000119316 -0.0702432 0.000395116)
(-0.000416554 -0.162054 -0.000171829)
(-0.000564263 -0.212692 0.000184687)
(-0.000380587 -0.236498 0.000626879)
(-0.000142182 -0.247254 0.00101068)
(0.000215038 -0.251964 0.00119528)
(0.000569699 -0.253131 0.00135995)
(0.00100239 -0.251668 0.00156263)
(0.00151604 -0.247987 0.0017825)
(0.00210752 -0.242345 0.00200645)
(0.00278268 -0.234933 0.0022481)
(0.00354405 -0.225877 0.00252009)
(0.0043862 -0.215285 0.00282988)
(0.00529329 -0.203263 0.00317222)
(0.00624078 -0.189926 0.00350908)
(0.00718041 -0.175423 0.00373748)
(0.0080893 -0.15998 0.00363354)
(0.0089545 -0.143706 0.00325136)
(0.0096218 -0.126553 0.00294216)
(0.010211 -0.108685 0.00227859)
(0.0106658 -0.0903576 0.000954278)
(0.0109702 -0.072383 -0.00114135)
(0.011036 -0.0556476 -0.0037889)
(0.0108524 -0.0407467 -0.00654308)
(0.0103232 -0.027677 -0.0090105)
(0.0095047 -0.0155169 -0.0109863)
(0.00842241 -0.00296368 -0.0123365)
(0.00744571 0.00960654 -0.0128338)
(0.00637881 0.0283174 -0.0124195)
(0.00523147 0.0565084 -0.0104613)
(0.00423898 0.0972436 -0.00615112)
(0.0032495 0.143476 -0.00039063)
(0.00224909 0.171615 0.00316489)
(0.00138453 0.171307 0.00402992)
(0.000467233 0.106121 0.00224102)
(-4.02051e-05 -0.069473 -0.000132485)
(0.000160094 -0.161829 -0.00109022)
(0.000868257 -0.213303 -0.00165981)
(0.00173602 -0.238631 -0.00177623)
(0.00263752 -0.250389 -0.00164506)
(0.00355491 -0.255681 -0.00147036)
(0.00444561 -0.257212 -0.00132296)
(0.00528004 -0.256096 -0.00127218)
(0.00613859 -0.252647 -0.00131388)
(0.0069646 -0.247177 -0.00141622)
(0.00779061 -0.239875 -0.00157216)
(0.00860698 -0.230871 -0.00176659)
(0.00941182 -0.220248 -0.00197053)
(0.0101957 -0.208088 -0.002145)
(0.0109336 -0.194489 -0.0022592)
(0.0116471 -0.179531 -0.00238629)
(0.0122614 -0.1632 -0.00213285)
(0.012611 -0.145889 -0.00110869)
(0.0130037 -0.128075 -0.000397245)
(0.0132172 -0.109802 2.19613e-06)
(0.013333 -0.0910759 1.29426e-05)
(0.013347 -0.0723086 -0.000432117)
(0.0132656 -0.0538465 -0.00132899)
(0.0128741 -0.0366203 -0.00293497)
(0.0121895 -0.0210664 -0.00498987)
(0.0111941 -0.00689345 -0.00711608)
(0.0100647 0.00655797 -0.00897401)
(0.00900298 0.0186016 -0.0100643)
(0.00763782 0.0370053 -0.0103418)
(0.00625188 0.064406 -0.00924791)
(0.00501912 0.103898 -0.00597118)
(0.00379807 0.149185 -0.00100011)
(0.0025703 0.17688 0.00244885)
(0.00148457 0.176475 0.00362025)
(0.000358356 0.110448 0.00225717)
(4.48396e-05 -0.0701303 -0.0012073)
(0.000795607 -0.164913 -0.002674)
(0.002028 -0.218576 -0.00291815)
(0.00339144 -0.244825 -0.00265657)
(0.00471897 -0.256754 -0.00239586)
(0.00595092 -0.261936 -0.00222508)
(0.0071263 -0.263261 -0.00215147)
(0.00814645 -0.261973 -0.0021883)
(0.00913933 -0.25826 -0.00234603)
(0.0100135 -0.252429 -0.00260661)
(0.0108214 -0.244651 -0.00297655)
(0.0115525 -0.235062 -0.00346328)
(0.0122153 -0.22374 -0.0040647)
(0.0128103 -0.210762 -0.00474305)
(0.013309 -0.196232 -0.00536621)
(0.0137031 -0.180189 -0.00555539)
(0.014007 -0.163107 -0.00542264)
(0.0142918 -0.14508 -0.00560596)
(0.0143522 -0.126484 -0.00565988)
(0.014316 -0.107519 -0.00544696)
(0.0141641 -0.088199 -0.00502912)
(0.0138965 -0.0689382 -0.00459659)
(0.0135172 -0.0498695 -0.0044076)
(0.012986 -0.0312558 -0.00469828)
(0.012211 -0.0136061 -0.00559769)
(0.0113079 0.00212548 -0.00687791)
(0.010524 0.0141863 -0.0079755)
(0.0094358 0.0291404 -0.00897063)
(0.00806993 0.0481317 -0.00946172)
(0.00659667 0.074762 -0.00885879)
(0.00521904 0.112727 -0.00629614)
(0.00385341 0.156624 -0.00197527)
(0.00251661 0.183555 0.00128974)
(0.00134185 0.182755 0.00262017)
(0.000211139 0.114402 0.00163811)
(0.000114191 -0.0732132 -0.00153942)
(0.00117609 -0.171282 -0.0026065)
(0.00255318 -0.225584 -0.00261961)
(0.00388416 -0.25163 -0.00245395)
(0.00514123 -0.263284 -0.00232424)
(0.00632556 -0.268158 -0.00226113)
(0.00747149 -0.269104 -0.0022561)
(0.00845798 -0.26741 -0.00231378)
(0.00939069 -0.26319 -0.00244834)
(0.0101796 -0.256818 -0.00264811)
(0.010873 -0.248457 -0.00293832)
(0.0114556 -0.238217 -0.00335341)
(0.0119896 -0.226153 -0.00394688)
(0.012303 -0.212382 -0.00476971)
(0.0127364 -0.196917 -0.00569124)
(0.0129726 -0.180111 -0.00677243)
(0.0131497 -0.16193 -0.00814817)
(0.0132279 -0.142767 -0.00943372)
(0.0131881 -0.123045 -0.0103902)
(0.013025 -0.103069 -0.0108749)
(0.0127401 -0.0829592 -0.0108437)
(0.0123624 -0.0631586 -0.0104258)
(0.0119064 -0.0435894 -0.0098205)
(0.0113673 -0.0241644 -0.00925435)
(0.0107561 -0.00593939 -0.00895961)
(0.0102385 0.00793784 -0.00909104)
(0.00961539 0.0219396 -0.00951256)
(0.00870882 0.0382115 -0.0100101)
(0.00761861 0.0580156 -0.0102491)
(0.00633586 0.0848094 -0.00966335)
(0.0049659 0.1221 -0.00738895)
(0.00349252 0.164884 -0.00340301)
(0.00212218 0.190843 -0.000205138)
(0.000975012 0.189332 0.00130455)
(2.42133e-05 0.11748 0.000816872)
(0.000153091 -0.0766991 -0.0015779)
(0.00112661 -0.177035 -0.00256367)
(0.00226358 -0.231238 -0.00273597)
(0.00332451 -0.256861 -0.00267701)
(0.00433617 -0.268236 -0.0025974)
(0.00530443 -0.272871 -0.00255753)
(0.00626691 -0.273529 -0.00256762)
(0.00711998 -0.27144 -0.00263981)
(0.0079346 -0.266724 -0.00278828)
(0.00862849 -0.259787 -0.00299657)
(0.00926406 -0.250806 -0.00329608)
(0.00971048 -0.23999 -0.00371446)
(0.0100515 -0.227267 -0.00435169)
(0.0105358 -0.212771 -0.005253)
(0.0106514 -0.196686 -0.00639774)
(0.0108247 -0.17887 -0.00782785)
(0.0108697 -0.159514 -0.00945204)
(0.0107952 -0.139048 -0.0111453)
(0.0106203 -0.118049 -0.0127043)
(0.0103543 -0.0969939 -0.013893)
(0.010019 -0.076111 -0.0145318)
(0.00963618 -0.0557973 -0.0146228)
(0.0092326 -0.0361509 -0.0142812)
(0.0088624 -0.0171919 -0.0136839)
(0.00858079 0.000292258 -0.0130989)
(0.00832629 0.0143139 -0.0127836)
(0.00792413 0.0297476 -0.012669)
(0.00735995 0.046844 -0.0126247)
(0.00660538 0.0675895 -0.0124015)
(0.00556184 0.0953094 -0.0114934)
(0.00420536 0.132871 -0.00915483)
(0.00255191 0.174599 -0.00536263)
(0.00121826 0.198489 -0.00239221)
(0.00026668 0.195324 -0.000932264)
(-0.000325787 0.118863 -0.00107257)
(0.00019036 -0.0795877 -0.00149119)
(0.000889324 -0.1813 -0.00238656)
(0.00164119 -0.235043 -0.00254504)
(0.00234298 -0.260208 -0.00249957)
(0.00306389 -0.27136 -0.00245173)
(0.00377789 -0.275886 -0.00242759)
(0.00452308 -0.276426 -0.00244201)
(0.00521134 -0.274094 -0.0025054)
(0.00592876 -0.269081 -0.00262105)
(0.00643218 -0.261842 -0.00275592)
(0.00689857 -0.252326 -0.00304015)
(0.00745892 -0.240716 -0.00353402)
(0.00776918 -0.227457 -0.00404241)
(0.00788311 -0.212377 -0.00464282)
(0.00803574 -0.195316 -0.00555293)
(0.0079985 -0.176411 -0.006825)
(0.00788178 -0.155923 -0.00848803)
(0.00769953 -0.134325 -0.0104641)
(0.00744911 -0.112279 -0.0125301)
(0.00715902 -0.0904138 -0.0143719)
(0.00685636 -0.069084 -0.0157039)
(0.00656457 -0.048593 -0.0164095)
(0.00630392 -0.0292305 -0.0165745)
(0.00613248 -0.0110458 -0.0163495)
(0.00611749 0.00560177 -0.0159715)
(0.00609577 0.0198724 -0.0156462)
(0.00592691 0.0357224 -0.0153784)
(0.00563142 0.05378 -0.0151072)
(0.00513886 0.076099 -0.0146346)
(0.00429186 0.105699 -0.0135021)
(0.0029385 0.144301 -0.0110167)
(0.00125915 0.184614 -0.00739453)
(0.000176714 0.205416 -0.00464422)
(-0.000443088 0.199871 -0.00299478)
(-0.000510154 0.118789 -0.00203614)
(0.000121663 -0.0815259 -0.00115343)
(0.000494749 -0.183097 -0.00199788)
(0.000950816 -0.236317 -0.00222465)
(0.00136186 -0.261402 -0.00220111)
(0.00182212 -0.272781 -0.00211799)
(0.00227592 -0.277483 -0.00204438)
(0.002776 -0.27806 -0.0020221)
(0.00327481 -0.275565 -0.00206686)
(0.00371154 -0.270229 -0.00220675)
(0.00424313 -0.262329 -0.00248339)
(0.00463585 -0.252454 -0.00261667)
(0.00481783 -0.240581 -0.00250882)
(0.00502662 -0.226542 -0.00245099)
(0.00505285 -0.210457 -0.00261055)
(0.00493381 -0.192524 -0.00311227)
(0.00476443 -0.172891 -0.00408249)
(0.00455207 -0.151744 -0.00561619)
(0.00434133 -0.129465 -0.0077088)
(0.00415398 -0.106706 -0.0101818)
(0.00397155 -0.0842405 -0.0126777)
(0.0037861 -0.0626129 -0.0147945)
(0.00361761 -0.0420904 -0.0162557)
(0.0034885 -0.023075 -0.0170827)
(0.00344879 -0.00568567 -0.0173995)
(0.00349713 0.00960194 -0.017424)
(0.00352729 0.0253151 -0.0172211)
(0.00342794 0.0419835 -0.016874)
(0.00322917 0.0611426 -0.0164)
(0.00287361 0.0852176 -0.0156684)
(0.00219878 0.116868 -0.014313)
(0.00101238 0.156017 -0.0119851)
(-0.000179567 0.193377 -0.00887309)
(-0.000675861 0.209756 -0.00670864)
(-0.000878433 0.201223 -0.00533761)
(-0.000632324 0.11703 -0.00318368)
(-6.60826e-06 -0.0818111 -0.000975703)
(7.56236e-05 -0.183216 -0.00189156)
(0.000366506 -0.236399 -0.00213831)
(0.000730592 -0.261491 -0.00214293)
(0.000991831 -0.272918 -0.00205342)
(0.0013226 -0.277655 -0.00199588)
(0.00165212 -0.278285 -0.00198657)
(0.00200113 -0.275758 -0.00204395)
(0.00233145 -0.270356 -0.00217182)
(0.0027101 -0.262344 -0.00234589)
(0.00300862 -0.251845 -0.00227115)
(0.00317086 -0.239103 -0.0018588)
(0.00320522 -0.224168 -0.00152704)
(0.00309496 -0.207382 -0.00127407)
(0.00289901 -0.189018 -0.00120176)
(0.00267512 -0.169233 -0.00147907)
(0.00249163 -0.148109 -0.00229454)
(0.00239828 -0.12579 -0.00379832)
(0.00237955 -0.102696 -0.00600847)
(0.00236634 -0.0795985 -0.00870782)
(0.00233315 -0.0573451 -0.0114605)
(0.00228546 -0.0365256 -0.0138035)
(0.00219175 -0.0176002 -0.0155264)
(0.00210539 -0.00042346 -0.0166189)