/*--------------------------------*- C++ -*----------------------------------*\
| =========                 |                                                 |
| \\      /  F ield         | OpenFOAM: The Open Source CFD Toolbox           |
|  \\    /   O peration     | Version:  2.0.x                                 |
|   \\  /    A nd           | Web:      www.OpenFOAM.org                      |
|    \\/     M anipulation  |                                                 |
\*---------------------------------------------------------------------------*/
FoamFile
{
    version     2.0;
    format      ascii;
    class       volScalarField;
    location    "400";
    object      k;
}
// * * * * * * * * * * * * * * * * * * * * * * * * * * * * * * * * * * * * * //

dimensions      [0 2 -2 0 0 0 0];

internalField   nonuniform List<scalar> 
78750
(
4.88407e-05
0.000262737
0.000349205
0.000385736
0.000414032
0.000445949
0.00047754
0.000504699
0.000528412
0.000548931
0.000566733
0.000581684
0.000593805
0.000603495
0.0006107
0.000616404
0.000620017
0.000622483
0.000628578
0.000632657
0.000634561
0.000633196
0.000629887
0.000624917
0.000618761
0.000611125
0.000602916
0.000594343
0.00058513
0.000575099
0.000563824
0.000550464
0.000532768
0.000461332
0.000101929
3.04076e-05
0.000132444
0.000198177
0.000264809
0.000341534
0.000419941
0.00049337
0.00055887
0.000614382
0.000660346
0.000699507
0.000730517
0.000753327
0.000770124
0.000781721
0.000788158
0.000789649
0.00078811
0.000777583
0.000763659
0.000749713
0.000735787
0.000721918
0.000708208
0.000695097
0.000682647
0.000668147
0.000652585
0.000636159
0.000618099
0.000598388
0.000576018
0.000542086
0.000461793
0.000273742
1.26297e-05
0.000131372
0.000262785
0.000397558
0.000523026
0.000628053
0.000706427
0.000763379
0.000804778
0.000833819
0.000851084
0.000860027
0.000862063
0.000860108
0.000852566
0.000839944
0.000822937
0.000802741
0.000781917
0.00075977
0.000736603
0.00071344
0.00069056
0.00066949
0.0006495
0.000631746
0.00061913
0.000611021
0.000605364
0.000599945
0.000590931
0.000572985
0.000538222
0.000481642
0.000413979
2.19812e-05
0.000217498
0.000410368
0.000566537
0.000672534
0.000738371
0.000782082
0.000813544
0.00083679
0.000853729
0.000865372
0.000871632
0.000872143
0.0008686
0.000859119
0.000844874
0.000826227
0.000803592
0.000778062
0.000749612
0.000718195
0.000683451
0.000649444
0.000616848
0.000586372
0.0005632
0.000547005
0.00053869
0.000538866
0.000543684
0.000547911
0.000543778
0.000520693
0.00048017
0.00042335
5.33562e-05
0.000282112
0.00047975
0.000618135
0.000710881
0.000777248
0.000828602
0.000869399
0.000900933
0.000923584
0.000937571
0.000943209
0.000941746
0.000932623
0.000916596
0.000894228
0.000866286
0.000833915
0.000797957
0.000758913
0.000717921
0.000675603
0.000632894
0.00059011
0.000550535
0.000518621
0.0004965
0.000485211
0.000486017
0.000497351
0.000510513
0.000515148
0.000504514
0.000473409
0.000405048
7.95137e-05
0.000332299
0.000533847
0.000670724
0.000759894
0.00082186
0.000867997
0.000902891
0.000928609
0.00094632
0.000956698
0.000960099
0.00095724
0.000947993
0.000932722
0.000911712
0.000885241
0.000853789
0.000817808
0.000777534
0.0007333
0.00068582
0.000636702
0.000588302
0.000541393
0.000499345
0.000467318
0.000447766
0.000445011
0.000455057
0.00047501
0.000488404
0.000484094
0.000453923
0.000372648
0.000101531
0.000352461
0.000550812
0.000686763
0.000778102
0.000844579
0.000896531
0.000937799
0.000969832
0.000993292
0.00100856
0.00101591
0.00101571
0.00100878
0.000994885
0.000974685
0.000948614
0.000917148
0.000880946
0.000840546
0.00079584
0.000747021
0.000694978
0.000641891
0.000589422
0.000537162
0.000488964
0.000451874
0.000430964
0.000430759
0.000446041
0.000463953
0.000463677
0.000437386
0.000359495
0.000113316
0.000373114
0.000574228
0.00071217
0.000805227
0.000872378
0.000924004
0.000964246
0.00099497
0.00101724
0.00103175
0.00103899
0.00103934
0.00103362
0.00102149
0.00100342
0.000979633
0.000950414
0.000916171
0.00087757
0.000834422
0.000786635
0.00073475
0.000680587
0.000625597
0.000569034
0.000513318
0.000465283
0.000431965
0.000419415
0.000426265
0.000443869
0.000445388
0.000422295
0.000352798
0.000118966
0.000377192
0.000579537
0.00072231
0.000821059
0.000894146
0.000951251
0.000996612
0.00103219
0.00105903
0.00107782
0.001089
0.00109297
0.00109045
0.00108149
0.00106641
0.00104544
0.00101879
0.000986684
0.000949625
0.00090824
0.000862124
0.000811084
0.000755756
0.000698015
0.000638451
0.000575061
0.000511115
0.000455274
0.000421683
0.000417486
0.000427846
0.000430638
0.00041119
0.000353057
0.000121264
0.000387222
0.000597207
0.000744424
0.00084554
0.000920076
0.00097828
0.0010241
0.00105972
0.00108648
0.0011053
0.00111678
0.00112138
0.00111986
0.00111256
0.00109951
0.00108088
0.00105679
0.00102734
0.00099287
0.000953998
0.000910465
0.000861856
0.000808605
0.000752591
0.000693966
0.000628801
0.000557939
0.000490918
0.000437706
0.000417837
0.000417911
0.000418427
0.000403181
0.000362244
0.000124237
0.000398122
0.000616222
0.000769751
0.000874956
0.000952626
0.00101392
0.00106282
0.00110131
0.00113055
0.00115175
0.00116541
0.00117205
0.00117212
0.00116738
0.0011564
0.00113977
0.00111758
0.00108987
0.00105689
0.00101904
0.000976752
0.000929418
0.000877179
0.000821692
0.000763375
0.000698259
0.000625704
0.000551337
0.000478778
0.00042849
0.000418601
0.000415572
0.000404055
0.000380849
0.000127449
0.00041144
0.000641296
0.000800804
0.000908217
0.000986418
0.00104737
0.00109627
0.00113506
0.0011646
0.00118547
0.0011984
0.0012045
0.00120435
0.00119954
0.00118878
0.00117258
0.001151
0.00112407
0.00109192
0.00105487
0.00101331
0.000966626
0.000914925
0.000859767
0.000801522
0.000736633
0.000665159
0.000591664
0.000515971
0.000453102
0.000423498
0.000416208
0.00040734
0.000403121
0.000139404
0.000441576
0.00068284
0.000845781
0.000953193
0.00103049
0.00109027
0.00113893
0.00117814
0.00120872
0.00123113
0.00124562
0.00125238
0.00125214
0.00124685
0.00123599
0.00122008
0.00119919
0.00117315
0.00114184
0.00110525
0.00106351
0.00101597
0.000962693
0.00090516
0.000843797
0.000775201
0.000699669
0.000621982
0.000541607
0.000471531
0.000433415
0.000420826
0.000413502
0.000418296
0.000151671
0.000465888
0.000717822
0.000883371
0.000989414
0.00106333
0.00112128
0.00116847
0.00120638
0.00123586
0.00125755
0.00127196
0.00127971
0.0012813
0.00127797
0.00126884
0.00125499
0.00123646
0.00121271
0.00118344
0.0011485
0.00110733
0.00105947
0.00100539
0.000946571
0.000883321
0.000812485
0.000735446
0.000657157
0.000574199
0.000495722
0.00044688
0.000429247
0.000425366
0.000447049
0.000178869
0.000511614
0.000768854
0.000930878
0.00103131
0.00110223
0.00115812
0.00120323
0.0012391
0.00126675
0.00128694
0.00130002
0.001307
0.00130827
0.00130659
0.00130181
0.00129347
0.0012819
0.00126505
0.00124078
0.00120796
0.00116561
0.00111389
0.00105406
0.000988302
0.000918453
0.000842083
0.00076286
0.000685308
0.000604333
0.000523518
0.000466084
0.000443313
0.0004418
0.00046912
0.000204243
0.000542747
0.000798918
0.000957305
0.00105549
0.00112451
0.00117819
0.0012205
0.00125326
0.00127786
0.00129564
0.00130571
0.00130997
0.0013107
0.00130925
0.00130617
0.0013035
0.00129927
0.00129056
0.00127346
0.00124748
0.00121101
0.00116444
0.00110855
0.00104373
0.000969175
0.000882512
0.000788376
0.00069942
0.000614701
0.000537907
0.00048354
0.000460522
0.000457195
0.000468724
0.000234767
0.000577294
0.000830619
0.000985804
0.00108176
0.00114923
0.00120067
0.00124007
0.00126931
0.00128963
0.00130195
0.00130839
0.00130993
0.00130872
0.00130663
0.00130493
0.00130437
0.00130439
0.00130321
0.00129852
0.00128071
0.00124817
0.00120492
0.00115223
0.0010905
0.00101829
0.000931579
0.000830034
0.000719937
0.000618406
0.000541317
0.000493793
0.000473336
0.000464945
0.000450621
0.000248056
0.000584347
0.000834998
0.000992481
0.00108992
0.00115869
0.00121013
0.00124823
0.00127501
0.00129224
0.00130179
0.00130538
0.00130306
0.00129525
0.00128691
0.00128365
0.00128623
0.00129402
0.00130254
0.00130522
0.00129808
0.00128018
0.00124748
0.0012029
0.00114744
0.00107999
0.000995631
0.000890032
0.000764339
0.00063544
0.000547963
0.000502835
0.000483652
0.000468197
0.000429592
0.000248243
0.000585074
0.000838438
0.000998904
0.0011027
0.00117474
0.0012279
0.00126644
0.00129259
0.00130785
0.00131332
0.00131156
0.00130474
0.00129532
0.00128331
0.00126988
0.0012621
0.00126324
0.00127483
0.0012879
0.00129539
0.00129108
0.00127429
0.00124333
0.00119815
0.00113851
0.00105888
0.000951784
0.000815017
0.000668891
0.000564394
0.000512899
0.000490059
0.000465768
0.000401076
0.000230892
0.000568878
0.000829692
0.000998363
0.00110496
0.0011811
0.00123929
0.0012834
0.00131454
0.0013331
0.00133943
0.00133566
0.00132372
0.00130574
0.00128553
0.00126723
0.00125257
0.00124379
0.00124081
0.00124962
0.00126502
0.00127763
0.00127678
0.00126079
0.00122944
0.00117963
0.00110589
0.000998282
0.000850638
0.000689645
0.000578039
0.000523006
0.000496218
0.000465803
0.00039737
0.000211833
0.00055362
0.00082029
0.000998271
0.00111217
0.00119288
0.00125452
0.00130198
0.00133734
0.00136157
0.0013749
0.00137749
0.00136987
0.00135267
0.00132745
0.00129762
0.00126947
0.0012465
0.00123259
0.00122799
0.00123223
0.00124206
0.00125336
0.00125537
0.00124277
0.0012102
0.00115369
0.00106043
0.000916365
0.000737007
0.000598793
0.000532413
0.000501266
0.000466443
0.000402845
0.000197958
0.000547707
0.000818447
0.00100089
0.00112125
0.00120678
0.00127215
0.0013228
0.00136094
0.00138775
0.00140396
0.00141025
0.00140834
0.00139902
0.00138352
0.00136343
0.0013396
0.00131207
0.00128249
0.00125592
0.00123716
0.00123186
0.00123695
0.00124562
0.00124543
0.00123241
0.00119584
0.00112627
0.00100771
0.000832925
0.000655576
0.000554555
0.000510826
0.000476168
0.000445309
0.000197384
0.000547836
0.000826705
0.0010181
0.00114343
0.001232
0.00129979
0.00135243
0.00139227
0.00142061
0.00143775
0.00144394
0.00144104
0.00142996
0.0014134
0.00139428
0.00137333
0.00135093
0.0013291
0.0013083
0.00128778
0.00126965
0.0012588
0.00125721
0.0012565
0.00124979
0.00122637
0.00117678
0.00108416
0.000930598
0.000737465
0.000597666
0.000532902
0.000497025
0.000493015
0.000209806
0.000567856
0.000851914
0.00104204
0.00116655
0.00125576
0.00132519
0.00138002
0.00142207
0.00145226
0.0014712
0.00147945
0.00147857
0.00147015
0.00145555
0.00143684
0.00141724
0.00139933
0.00138307
0.00136714
0.00134873
0.00132784
0.00130833
0.00129512
0.00128733
0.00127783
0.00125807
0.00121776
0.00114092
0.00100668
0.000818654
0.000649789
0.000566816
0.000525031
0.000519702
0.000230771
0.000592429
0.000876116
0.0010654
0.00118947
0.00127896
0.00134894
0.00140472
0.00144821
0.00148018
0.00150079
0.00151021
0.00150953
0.00150059
0.00148516
0.00146697
0.00144994
0.00143698
0.00142709
0.00141798
0.00140482
0.00138564
0.00136347
0.00134397
0.00132865
0.00131275
0.00128901
0.00124784
0.00117406
0.00104807
0.000870201
0.000696727
0.000602203
0.000550355
0.000521491
0.000251589
0.000614557
0.000896498
0.00108367
0.00120626
0.00129526
0.00136539
0.00142193
0.00146687
0.00150091
0.00152388
0.00153548
0.00153557
0.00152619
0.00150719
0.00148389
0.00146267
0.00144915
0.00144618
0.00144727
0.00144482
0.0014324
0.00141387
0.0013935
0.00137206
0.00134765
0.00131543
0.00126686
0.00118843
0.00106508
0.000898466
0.00073404
0.000636345
0.000572521
0.000512284
0.000268471
0.000626105
0.000906677
0.00109346
0.00121602
0.00130495
0.00137518
0.00143244
0.00147912
0.00151598
0.00154247
0.00155742
0.00155927
0.00154837
0.00152558
0.001496
0.00146762
0.00144974
0.00144723
0.0014552
0.00146493
0.00146973
0.00146434
0.00144976
0.00142652
0.00139479
0.00135201
0.00129155
0.0012025
0.00107509
0.000914436
0.000760174
0.000662736
0.000588032
0.000495017
0.000270072
0.000627267
0.000908457
0.00109881
0.0012224
0.00131139
0.00138136
0.00143887
0.00148703
0.00152703
0.00155864
0.00158046
0.00158988
0.00158448
0.00156388
0.00153087
0.00149221
0.00145849
0.00144123
0.00144096
0.00145544
0.00147223
0.0014835
0.00148372
0.00146947
0.00143994
0.00139387
0.00132685
0.00123081
0.00109915
0.000938481
0.000786127
0.000685889
0.000602599
0.000488945
0.000261533
0.000617945
0.000903843
0.00109965
0.00122645
0.00131701
0.00138749
0.00144559
0.00149549
0.00153942
0.00157773
0.0016089
0.00162923
0.0016343
0.00162134
0.00159014
0.00154507
0.00149562
0.00145554
0.00143525
0.00143598
0.00145522
0.00147905
0.00149529
0.00149672
0.00147888
0.00143833
0.00137262
0.00127574
0.00114174
0.000976879
0.000818581
0.000711231
0.000619792
0.000494267
0.000243073
0.000606253
0.000900288
0.00109989
0.00122948
0.00132175
0.00139326
0.00145222
0.00150361
0.00155074
0.00159484
0.00163494
0.00166662
0.00168407
0.00168307
0.00166105
0.00161841
0.00156057
0.00149975
0.00145069
0.00142826
0.00143382
0.00145967
0.00148967
0.0015078
0.00150634
0.00147893
0.00142117
0.00132924
0.00119653
0.00102797
0.000861485
0.000742662
0.000639749
0.000506721
0.00022969
0.000605206
0.00090225
0.00110611
0.00123858
0.00133184
0.00140315
0.00146137
0.00151269
0.00156211
0.00161241
0.00166286
0.0017103
0.00174769
0.00176706
0.00176424
0.00173747
0.00168729
0.00161877
0.00154023
0.00147171
0.00143806
0.00144322
0.0014715
0.00150166
0.00151409
0.00150169
0.00145589
0.00137313
0.00124643
0.00108003
0.000910535
0.000781433
0.00066572
0.000525698
0.00022841
0.000614396
0.000923446
0.00112826
0.00125741
0.00134708
0.00141582
0.00147191
0.00152241
0.00157394
0.00163087
0.00169408
0.00175784
0.00181211
0.00184823
0.00186067
0.00185033
0.00181428
0.00175384
0.00167166
0.00157812
0.00150072
0.00146592
0.00147212
0.00149635
0.0015157
0.00151406
0.00148264
0.00140972
0.00128967
0.00112773
0.000959767
0.000823234
0.000695524
0.000548387
0.000243552
0.000649272
0.000964433
0.00116176
0.00128204
0.00136432
0.00142931
0.00148205
0.00153205
0.00158797
0.001656
0.00173351
0.00181352
0.00188219
0.00193068
0.00195562
0.00195628
0.00193652
0.00189042
0.00181643
0.00171633
0.00161096
0.00153492
0.00149904
0.00150229
0.00151822
0.0015191
0.00149628
0.00143279
0.00132166
0.0011684
0.00100653
0.000865964
0.000726885
0.000570264
0.000280003
0.000700449
0.00101322
0.0011976
0.00130623
0.00137872
0.00143463
0.00148398
0.00153314
0.00159112
0.00166724
0.00176586
0.00186465
0.0019457
0.00200062
0.00203023
0.0020379
0.00202614
0.00199149
0.001931
0.00184288
0.0017387
0.00164502
0.00157644
0.00154318
0.00153411
0.00152964
0.00150723
0.00144939
0.00134574
0.00120147
0.00104714
0.000906687
0.000761437
0.000593238
0.00033217
0.000759425
0.00105974
0.00122766
0.0013237
0.00138574
0.00143147
0.00147126
0.00151502
0.00157619
0.00166631
0.00177485
0.00188316
0.00197468
0.00204287
0.00208427
0.00210037
0.00209402
0.00206549
0.0020131
0.00193581
0.00184196
0.00174758
0.00166538
0.0016098
0.00157968
0.00155956
0.00152844
0.00146827
0.00136716
0.00122966
0.00108275
0.000942695
0.000789031
0.000597389
0.000384063
0.000800868
0.00108516
0.0012417
0.00133017
0.00138617
0.00142242
0.00144739
0.00147797
0.00153223
0.00162424
0.00174846
0.00187367
0.00197417
0.00204554
0.0020911
0.00211543
0.00212148
0.00210695
0.00206834
0.00200523
0.00192448
0.00183568
0.00175008
0.00168199
0.00163541
0.00160007
0.00155749
0.00149071
0.00138844
0.00125497
0.00111352
0.000973698
0.000812037
0.000595503
0.000397771
0.000807013
0.00108816
0.00124412
0.00133213
0.00138684
0.00141966
0.00143605
0.00144611
0.00147558
0.00154225
0.00165217
0.00178654
0.00190944
0.00200312
0.00206718
0.00210573
0.00212117
0.00211557
0.00208932
0.00204371
0.00197958
0.00190276
0.00182139
0.00174847
0.00169103
0.00164335
0.00159026
0.0015165
0.00141192
0.00128088
0.00114347
0.00100224
0.000829309
0.000583341
0.000397207
0.000806998
0.00108833
0.00124319
0.00133166
0.00138683
0.0014203
0.00143587
0.00143918
0.00143793
0.00146815
0.00155005
0.00167605
0.00181277
0.00192662
0.00200909
0.00206357
0.00209351
0.00210087
0.00208706
0.00205407
0.00200659
0.00194662
0.00187748
0.00180863
0.00174793
0.0016924
0.0016303
0.00154885
0.00144002
0.00130917
0.00117298
0.00102731
0.000841128
0.000574014
0.000390869
0.00080191
0.00108366
0.00124173
0.00133152
0.00138673
0.00142045
0.00143604
0.00143813
0.00143163
0.00142844
0.00147509
0.00158794
0.00173037
0.00186076
0.0019581
0.00202304
0.00206104
0.00207578
0.00206983
0.00204664
0.0020115
0.00196644
0.00190946
0.00184742
0.00178821
0.00173047
0.00166517
0.00158098
0.00147138
0.00134221
0.00120661
0.00105557
0.00085599
0.000573345
0.000387645
0.000800088
0.00108328
0.00124141
0.00133182
0.00138812
0.0014232
0.00143963
0.00144073
0.00143271
0.00142321
0.00143626
0.00151462
0.00165433
0.00179754
0.00190939
0.00198374
0.00202698
0.00204532
0.00204284
0.00202407
0.00199707
0.0019644
0.00192399
0.0018765
0.00182207
0.00176279
0.001693
0.00160567
0.00149577
0.00136916
0.00123479
0.00107924
0.000866865
0.000568508
0.000386754
0.000799928
0.00108332
0.00124224
0.00133313
0.00139173
0.00142846
0.00144601
0.00144692
0.00143556
0.00142203
0.00142384
0.00147613
0.00159865
0.00175023
0.00187547
0.00195939
0.00200839
0.00202826
0.00202284
0.00199817
0.00196585
0.00193469
0.00190565
0.00187173
0.00183145
0.00178141
0.00171541
0.00162666
0.00151815
0.00139459
0.00126103
0.00110104
0.000876522
0.000563121
0.000390048
0.000800742
0.00108341
0.00124324
0.00133582
0.00139547
0.00143279
0.00145082
0.00145172
0.00143915
0.00142057
0.00141329
0.00144972
0.0015637
0.00172026
0.00186058
0.00195523
0.00200782
0.00202795
0.00202089
0.00199023
0.00194607
0.00190179
0.00186612
0.00183825
0.00181341
0.00177446
0.00171542
0.00163496
0.00153166
0.00141295
0.00128222
0.00112059
0.000887495
0.000561159
0.000399695
0.000805761
0.00108673
0.00124705
0.00134053
0.00140093
0.0014388
0.00145692
0.00145719
0.00144243
0.0014205
0.0014047
0.0014305
0.00153707
0.00169991
0.00185471
0.00196359
0.00202637
0.00205075
0.00204507
0.00201134
0.00195472
0.00189072
0.00183687
0.00180285
0.00177776
0.001747
0.00170146
0.00163062
0.00153519
0.00142361
0.00129727
0.00113686
0.000898396
0.000561254
0.000417545
0.00081263
0.00109168
0.00125123
0.00134463
0.0014056
0.00144394
0.00146232
0.00146268
0.00144664
0.00141946
0.0013962
0.00139826
0.00148239
0.00164544
0.00182077
0.00195416
0.00203489
0.00207132
0.00207328
0.00204234
0.00197964
0.00189488
0.00181603
0.00176251
0.00173792
0.00171414
0.00167383
0.00161297
0.00152892
0.00142484
0.00130596
0.00115086
0.000911354
0.000563422
0.000420346
0.000810576
0.00108942
0.00124902
0.00134434
0.00140682
0.00144688
0.00146848
0.00147159
0.00145837
0.00143073
0.00139711
0.0013791
0.00139189
0.00150582
0.00169618
0.00187212
0.00199752
0.00206835
0.00209153
0.00207609
0.00202059
0.00192728
0.00181684
0.00173145
0.00168389
0.00166392
0.00163764
0.001586
0.00151195
0.00141903
0.00130875
0.00116175
0.000923754
0.00056769
0.000399315
0.000788424
0.00107237
0.00123518
0.0013328
0.0013998
0.00144732
0.00147421
0.00148383
0.00147922
0.0014594
0.0014265
0.00138628
0.00136542
0.00136873
0.00144926
0.00164368
0.00183339
0.00197349
0.00205476
0.00208207
0.00206024
0.00198598
0.00186612
0.00173524
0.00165313
0.00160911
0.00158736
0.00155345
0.00149377
0.00141154
0.00131125
0.001175
0.000945973
0.000597059
0.000347598
0.000757059
0.00105286
0.00122319
0.0013254
0.00139724
0.00144653
0.00147804
0.00149631
0.00150031
0.00149307
0.00147426
0.00144393
0.00140248
0.00136455
0.00134796
0.00137177
0.00152729
0.0017367
0.00190361
0.00201023
0.00205566
0.00204437
0.0019653
0.00183064
0.00168448
0.00160602
0.00156204
0.00152439
0.0014748
0.0014043
0.00131552
0.00119201
0.000977895
0.000649332
0.000315554
0.000741983
0.00104499
0.00121971
0.00132369
0.00139454
0.00144703
0.00148387
0.00150612
0.00151447
0.00151098
0.00149738
0.00147692
0.00144887
0.00141386
0.00137651
0.00136016
0.00138613
0.00153504
0.00172511
0.00188609
0.00199829
0.00204694
0.00203388
0.00194551
0.0017987
0.00164707
0.00156324
0.00151817
0.00146735
0.00140235
0.00132014
0.00120626
0.00100667
0.000708291
0.000316217
0.000740757
0.00104462
0.00121943
0.00132581
0.00140125
0.00145765
0.00149742
0.00152115
0.00152945
0.00152569
0.00150755
0.00148168
0.00145308
0.00142992
0.00141872
0.00141693
0.00142832
0.0015254
0.0016915
0.00185373
0.0019791
0.00205614
0.00207562
0.00203394
0.00191725
0.00175586
0.00161186
0.00152318
0.00146952
0.00140508
0.001326
0.00122079
0.00103861
0.000774456
0.000377264
0.000793503
0.00108111
0.0012466
0.00134972
0.00142383
0.0014785
0.00151566
0.00153598
0.0015397
0.00153082
0.00150846
0.00147498
0.00144464
0.00144888
0.00148977
0.00158757
0.00167695
0.00175395
0.00185088
0.00195668
0.00204812
0.00211386
0.00214333
0.00211907
0.00202754
0.00187492
0.00170446
0.00157019
0.00147767
0.00140573
0.00133041
0.00123027
0.001058
0.000780156
0.000464821
0.000848637
0.00110541
0.0012593
0.00136032
0.00143472
0.0014895
0.00152535
0.00154334
0.00154349
0.0015292
0.00149516
0.00145194
0.00143006
0.00147911
0.0016463
0.00183205
0.00195689
0.00203663
0.00210057
0.00215643
0.00220339
0.00223696
0.00224522
0.00221056
0.00211971
0.00197117
0.00179196
0.0016312
0.00151267
0.00142155
0.00133778
0.00123526
0.00105686
0.000762278
0.000531594
0.000860321
0.00110781
0.00126045
0.00136167
0.0014374
0.00149396
0.00153133
0.00154917
0.00154834
0.00152889
0.00149395
0.00144573
0.00141473
0.0014723
0.00165098
0.00184986
0.00200113
0.00211422
0.0021963
0.00225371
0.00229382
0.00231625
0.0023153
0.00227712
0.00218545
0.00203915
0.00186017
0.00168904
0.00155033
0.00144204
0.00134605
0.00123134
0.00103448
0.000670049
0.000543677
0.000860093
0.00109635
0.00124557
0.00134762
0.00142735
0.00149014
0.00153342
0.00155569
0.0015586
0.00154343
0.00150804
0.00145422
0.00139417
0.00137137
0.00143559
0.00163093
0.00183374
0.00201373
0.00214224
0.00222457
0.00227718
0.00230573
0.00230744
0.00227324
0.00218965
0.00206009
0.00189374
0.00172232
0.00157682
0.00145965
0.00135446
0.00122688
0.00100653
0.000600597
0.000525874
0.000825449
0.00106983
0.00122457
0.00132998
0.00141172
0.00147682
0.00152719
0.00156172
0.00157598
0.00157488
0.00155431
0.0015121
0.00144658
0.00137251
0.0013535
0.00141188
0.00158488
0.00177945
0.00195085
0.00207968
0.00216879
0.00222352
0.00224237
0.00222629
0.00216627
0.00205359
0.00190495
0.00175039
0.00160438
0.00147793
0.00135991
0.00121444
0.00096815
0.000544872
0.000483038
0.000794086
0.00104157
0.00120137
0.00131194
0.00139924
0.00147035
0.00152567
0.0015649
0.00158764
0.00159181
0.00158076
0.00155234
0.00150455
0.00143282
0.00135184
0.00133984
0.00140928
0.00156236
0.00172482
0.00186219
0.00197384
0.00206039
0.00211366
0.0021259
0.00209319
0.00201272
0.00189387
0.00175011
0.00161528
0.0014901
0.00136613
0.00121136
0.000955279
0.000530401
0.000467857
0.000773298
0.0010219
0.00118423
0.0012972
0.00138717
0.0014621
0.00152318
0.00156964
0.00160027
0.00161287
0.00161084
0.0015908
0.00155153
0.00149154
0.00141169
0.00134147
0.00133633
0.00141872
0.00156723
0.00170585
0.00181629
0.00190315
0.00196809
0.00200083
0.00199543
0.00194344
0.00185175
0.00173733
0.00161156
0.00148765
0.00136237
0.00120549
0.000943139
0.000515335
0.000423692
0.000732749
0.000987026
0.00115589
0.00127404
0.00136862
0.00144875
0.00151616
0.00157084
0.00160955
0.00163513
0.00164389
0.00163899
0.00161701
0.00157616
0.001512
0.00142236
0.0013347
0.00131933
0.00139453
0.00153772
0.00166612
0.00176219
0.00183281
0.00187658
0.00188876
0.00186548
0.00180253
0.00170814
0.00159712
0.00148134
0.00136071
0.00120535
0.000944293
0.000517191
0.00038038
0.000701798
0.00095929
0.00113267
0.00125449
0.0013522
0.00143598
0.00150793
0.00156907
0.00161406
0.00164773
0.00166823
0.00167319
0.00166461
0.00164059
0.00160007
0.00153792
0.00144603
0.00134078
0.00129909
0.00136079
0.00149214
0.00161375
0.00170601
0.00176718
0.00179634
0.0017914
0.00174965
0.00167666
0.0015823
0.00147648
0.00136083
0.00120991
0.000956077
0.000544636
0.000355271
0.000674607
0.000932286
0.00111094
0.00123799
0.00134025
0.00142904
0.00150752
0.0015705
0.00162486
0.00166749
0.00169696
0.00171134
0.00171139
0.00169518
0.00166217
0.00161231
0.00154269
0.00144602
0.0013354
0.00128405
0.00133888
0.00146627
0.00158154
0.00166427
0.00171318
0.00172553
0.00170213
0.00164506
0.00156402
0.00146773
0.00135886
0.00121542
0.000971968
0.000573757
0.000340635
0.00065853
0.000916082
0.00109842
0.00122899
0.00133384
0.00142522
0.00150652
0.00157695
0.00163748
0.00168692
0.0017242
0.00174793
0.00175592
0.00174791
0.00172231
0.0016787
0.00161674
0.00153401
0.00142765
0.00131839
0.00128165
0.00135027
0.00147619
0.00157596
0.00163934
0.00166734
0.00165962
0.00161635
0.00154724
0.00146008
0.00135816
0.00121911
0.000982353
0.000593296
0.000316794
0.000632945
0.000890547
0.00107843
0.00121443
0.00132422
0.0014203
0.00150669
0.00158285
0.00165065
0.0017085
0.00175468
0.00178763
0.0018061
0.00180845
0.00179405
0.00176227
0.00171273
0.00164403
0.00155269
0.00143662
0.00132134
0.00128946
0.00135097
0.0014756
0.00156468
0.00161104
0.00161816
0.00159293
0.00153554
0.00145687
0.0013598
0.00122883
0.00100207
0.000625492
0.000313145
0.000623049
0.000878924
0.00106854
0.00120668
0.00131874
0.00141758
0.00150784
0.00159119
0.00166662
0.00173334
0.00178869
0.00183035
0.00185756
0.00186748
0.0018596
0.00183321
0.00178895
0.00172768
0.00164997
0.00155282
0.00143162
0.00131468
0.00129509
0.00135517
0.00147396
0.00155201
0.00158247
0.00157377
0.00152775
0.00145739
0.00136617
0.00123992
0.00102066
0.000675411
0.00031435
0.000615986
0.00086685
0.00105904
0.0012003
0.00131478
0.00141622
0.00151057
0.00159944
0.00168203
0.00175943
0.00182765
0.00188268
0.00192079
0.0019388
0.00193575
0.0019131
0.00186984
0.00180669
0.00172592
0.00162895
0.00151621
0.00139474
0.0013015
0.00130066
0.0013696
0.00147237
0.00153337
0.0015463
0.00152193
0.00146187
0.00137873
0.00126066
0.0010593
0.000754081
0.000327147
0.000615176
0.000865844
0.00105735
0.00119792
0.00131249
0.00141532
0.00151329
0.00160638
0.00169706
0.00178187
0.00185805
0.00192286
0.00197319
0.00200534
0.00201422
0.00199807
0.00195092
0.00187823
0.00178459
0.00167322
0.00154892
0.00141741
0.00130956
0.00127538
0.00131826
0.00142078
0.0014958
0.00152285
0.00150902
0.00145988
0.00138384
0.00127155
0.00107335
0.000756577
0.000343315
0.000614433
0.000859364
0.00105111
0.00119236
0.00130702
0.0014094
0.00150705
0.00160571
0.00170395
0.00179525
0.00187876
0.00195096
0.00201075
0.00205482
0.0020778
0.00207338
0.00203491
0.00195762
0.00184434
0.00170695
0.00155185
0.00139219
0.00127966
0.0012467
0.00129323
0.00139412
0.00147161
0.00150342
0.00149348
0.00145042
0.00138034
0.0012698
0.00106931
0.000720454
0.000348509
0.00061458
0.000857765
0.00104819
0.0011879
0.00130156
0.00140411
0.00150356
0.00160573
0.0017092
0.00180486
0.001892
0.00196984
0.00203714
0.00209078
0.00212481
0.00213073
0.00210143
0.00202579
0.00190343
0.00173949
0.00155108
0.00136328
0.00123918
0.00122767
0.00129334
0.00138901
0.00146089
0.00148855
0.00147903
0.00143775
0.001369
0.00125647
0.0010355
0.000630236
0.000342923
0.000602252
0.000845828
0.00103672
0.00117526
0.00128691
0.00138758
0.00148661
0.00159139
0.00169921
0.00180653
0.0019003
0.00198613
0.00206272
0.00212767
0.00217644
0.00220103
0.00219036
0.00213179
0.00201738
0.0018488
0.00164021
0.00142164
0.00125908
0.00123076
0.00129337
0.00138136
0.00144157
0.00146491
0.00145518
0.00141527
0.00134612
0.00122908
0.000995471
0.000564759
0.000329108
0.000593187
0.00083869
0.00102907
0.00116549
0.00127432
0.00137219
0.0014695
0.00157513
0.00168638
0.00179731
0.00190333
0.00199913
0.00208624
0.00216249
0.00222535
0.00226949
0.00228518
0.00225892
0.00217586
0.00202788
0.00181631
0.00157283
0.00134686
0.00124713
0.0012657
0.0013476
0.00142227
0.00145212
0.00144466
0.00140524
0.00133983
0.00122788
0.000996936
0.000564749
0.000312782
0.000580746
0.000828541
0.00101832
0.00115177
0.00125637
0.00134977
0.00144382
0.00154999
0.00166762
0.00178985
0.00190896
0.00201378
0.00210963
0.00219411
0.00226694
0.00232648
0.00236735
0.00237881
0.00234781
0.00225618
0.00209729
0.00187306
0.00161119
0.00138219
0.00127188
0.00128443
0.00134639
0.00141053
0.00142733
0.0014037
0.00134247
0.00123476
0.00101375
0.000637473
0.000298571
0.000573368
0.000825247
0.00101268
0.00114231
0.00124179
0.00132914
0.00141682
0.00151845
0.00163928
0.00177282
0.00190886
0.00202831
0.00213703
0.00223173
0.00231281
0.00238138
0.00243634
0.00247194
0.00247644
0.00243895
0.00234371
0.00218978
0.00198109
0.00172589
0.00147169
0.0013116
0.00130589
0.00133962
0.0013891
0.00139257
0.00135147
0.00125754
0.00106983
0.000770005
0.000283756
0.000571955
0.000825311
0.00101225
0.00113531
0.00122863
0.00130962
0.00139109
0.00148744
0.00161138
0.00175669
0.00190691
0.00204534
0.00216796
0.00227261
0.00236073
0.00243529
0.00249831
0.00254842
0.00257763
0.00257315
0.00253019
0.00243461
0.00229226
0.00210071
0.00184741
0.00156361
0.00136031
0.00133208
0.0013522
0.00137182
0.00134937
0.00127233
0.00111345
0.000839692
0.000277865
0.000574061
0.000830991
0.00101237
0.00113345
0.00121818
0.00129195
0.00136703
0.00145747
0.00158369
0.00174808
0.00191232
0.00206809
0.00220663
0.00232405
0.00242154
0.00250249
0.00257026
0.00262623
0.00266594
0.00268028
0.00266255
0.00260451
0.00250629
0.00235882
0.00214762
0.00186419
0.00155789
0.00137164
0.00135109
0.00135678
0.00133898
0.0012742
0.00113344
0.000847337
0.00028398
0.000600208
0.000858642
0.00102745
0.00113428
0.00121214
0.0012799
0.00135168
0.00144409
0.00157897
0.00174742
0.00193495
0.00211068
0.00226247
0.00238917
0.0024944
0.00258267
0.00265718
0.00271874
0.00276394
0.00278629
0.00278016
0.00274241
0.00266353
0.00253616
0.00235246
0.002097
0.00176853
0.00148421
0.0013678
0.00135562
0.00133298
0.00127314
0.00113554
0.000829627
0.000314287
0.000642205
0.000894302
0.00104753
0.00114131
0.00120782
0.0012673
0.00133538
0.00143214
0.00157725
0.00177221
0.00198319
0.00217229
0.00232763
0.0024559
0.00256384
0.00265852
0.00274217
0.00281236
0.00286505
0.00289454
0.00289539
0.00286717
0.00279754
0.00267971
0.00250765
0.00226928
0.00195004
0.00160117
0.00141101
0.00135705
0.00132446
0.00126454
0.00112969
0.000795037
0.00036487
0.000694865
0.000930478
0.0010633
0.00114197
0.00119722
0.00124824
0.00131268
0.00141813
0.00158196
0.00178842
0.00200375
0.00219517
0.00235064
0.00248163
0.00259718