/*--------------------------------*- C++ -*----------------------------------*\
| =========                 |                                                 |
| \\      /  F ield         | OpenFOAM: The Open Source CFD Toolbox           |
|  \\    /   O peration     | Version:  2.0.x                                 |
|   \\  /    A nd           | Web:      www.OpenFOAM.org                      |
|    \\/     M anipulation  |                                                 |
\*---------------------------------------------------------------------------*/
FoamFile
{
    version     2.0;
    format      ascii;
    class       volScalarField;
    location    "400";
    object      mut;
}
// * * * * * * * * * * * * * * * * * * * * * * * * * * * * * * * * * * * * * //

dimensions      [1 -1 -1 0 0 0 0];

internalField   nonuniform List<scalar> 
78750
(
5.80221e-08
1.26932e-05
1.53906e-05
1.90622e-05
2.26314e-05
2.26957e-05
2.09923e-05
2.0378e-05
1.98742e-05
1.96734e-05
1.97149e-05
2.00342e-05
2.02474e-05
2.03837e-05
2.17072e-05
2.31206e-05
2.3161e-05
2.30435e-05
2.35336e-05
2.48254e-05
2.34336e-05
2.40238e-05
2.62314e-05
2.55892e-05
2.58594e-05
2.5955e-05
2.56191e-05
2.42326e-05
2.34901e-05
2.2687e-05
2.1009e-05
1.92808e-05
1.75267e-05
1.42418e-05
1.08839e-07
3.61603e-08
1.05958e-05
8.63137e-06
9.28362e-06
1.08524e-05
1.23771e-05
1.71967e-05
2.49356e-05
3.08831e-05
3.51903e-05
3.70892e-05
3.9913e-05
4.39318e-05
4.51749e-05
4.4977e-05
4.70705e-05
5.33323e-05
5.58425e-05
5.68118e-05
6.06059e-05
6.42549e-05
6.38592e-05
6.27557e-05
6.0694e-05
5.98279e-05
4.7769e-05
4.23817e-05
4.68564e-05
3.93118e-05
3.15752e-05
2.79135e-05
2.35638e-05
2.0008e-05
1.9253e-05
2.9165e-07
1.50244e-08
3.28675e-06
5.51804e-06
8.84089e-06
1.44459e-05
2.56685e-05
3.99873e-05
4.97382e-05
5.69432e-05
6.16107e-05
6.53156e-05
6.69796e-05
6.76013e-05
6.83197e-05
6.65116e-05
6.2396e-05
6.38277e-05
7.28469e-05
7.62104e-05
7.02107e-05
6.41589e-05
5.97485e-05
5.75888e-05
5.35051e-05
3.79379e-05
3.99111e-05
4.67069e-05
3.5556e-05
3.08853e-05
2.74209e-05
2.47867e-05
2.26952e-05
2.35125e-05
2.53401e-05
4.39476e-07
2.61405e-08
3.8089e-06
8.53077e-06
1.78535e-05
3.39655e-05
4.92405e-05
5.81634e-05
6.46359e-05
6.9409e-05
7.2271e-05
7.38691e-05
7.45693e-05
7.45178e-05
7.39141e-05
7.23267e-05
6.83684e-05
6.18986e-05
5.56336e-05
5.32531e-05
5.32633e-05
5.22241e-05
4.96982e-05
4.50881e-05
3.47392e-05
3.40665e-05
3.96188e-05
3.09182e-05
2.49845e-05
2.31946e-05
2.12284e-05
1.97319e-05
2.00656e-05
2.5683e-05
2.05513e-05
4.47978e-07
6.34278e-08
4.20742e-06
1.07259e-05
2.2741e-05
3.92321e-05
5.33444e-05
6.20087e-05
6.72939e-05
7.06761e-05
7.26653e-05
7.32985e-05
7.28447e-05
7.15577e-05
6.95502e-05
6.68965e-05
6.39171e-05
6.08324e-05
5.71454e-05
5.26051e-05
4.73188e-05
4.2736e-05
3.99302e-05
3.81376e-05
3.54289e-05
3.04942e-05
3.1425e-05
2.85519e-05
2.0962e-05
1.80624e-05
1.66639e-05
1.60032e-05
1.75697e-05
2.61575e-05
1.69374e-05
4.27709e-07
9.44905e-08
4.95365e-06
1.33099e-05
2.88926e-05
4.75864e-05
6.04777e-05
6.78217e-05
7.19972e-05
7.39735e-05
7.44932e-05
7.40398e-05
7.28252e-05
7.0959e-05
6.85147e-05
6.55865e-05
6.22198e-05
5.85227e-05
5.48156e-05
5.13144e-05
4.78799e-05
4.42383e-05
4.0711e-05
3.76699e-05
3.46175e-05
2.9611e-05
2.80005e-05
2.39997e-05
1.7707e-05
1.51305e-05
1.41642e-05
1.37831e-05
1.58169e-05
2.64148e-05
1.40793e-05
3.92919e-07
1.20631e-07
5.04411e-06
1.37339e-05
3.00581e-05
4.87825e-05
6.13033e-05
6.85748e-05
7.27696e-05
7.49566e-05
7.57245e-05
7.53514e-05
7.41235e-05
7.23035e-05
7.00359e-05
6.73306e-05
6.42246e-05
6.07036e-05
5.67624e-05
5.25582e-05
4.84333e-05
4.46992e-05
4.15802e-05
3.93673e-05
3.80711e-05
3.40584e-05
2.71619e-05
2.42967e-05
1.89791e-05
1.34398e-05
1.12468e-05
1.10911e-05
1.39926e-05
2.51896e-05
1.278e-05
3.78724e-07
1.34615e-07
5.41701e-06
1.48261e-05
3.18822e-05
5.09373e-05
6.36975e-05
7.09782e-05
7.5e-05
7.69258e-05
7.74556e-05
7.70177e-05
7.58685e-05
7.41374e-05
7.19437e-05
6.93308e-05
6.63904e-05
6.31779e-05
5.96883e-05
5.58879e-05
5.18443e-05
4.77434e-05
4.4026e-05
4.13487e-05
3.98975e-05
3.58581e-05
2.84917e-05
2.45341e-05
1.84759e-05
1.26931e-05
1.04354e-05
9.98721e-06
1.26899e-05
2.46492e-05
1.15883e-05
3.71327e-07
1.4132e-07
5.35342e-06
1.45501e-05
3.14737e-05
5.07424e-05
6.39563e-05
7.17631e-05
7.63163e-05
7.8737e-05
7.96527e-05
7.94921e-05
7.85188e-05
7.69246e-05
7.48585e-05
7.23803e-05
6.95527e-05
6.64068e-05
6.29531e-05
5.91872e-05
5.51516e-05
5.10191e-05
4.70245e-05
4.35021e-05
4.08326e-05
3.88492e-05
3.3275e-05
2.46869e-05
1.97399e-05
1.35458e-05
9.29913e-06
8.66762e-06
1.12927e-05
2.28425e-05
1.10256e-05
3.71394e-07
1.44047e-07
5.48225e-06
1.49086e-05
3.21894e-05
5.18818e-05
6.53325e-05
7.33062e-05
7.79877e-05
8.04281e-05
8.12157e-05
8.0969e-05
7.99336e-05
7.83366e-05
7.63547e-05
7.40588e-05
7.14536e-05
6.85614e-05
6.53979e-05
6.19398e-05
5.82376e-05
5.43345e-05
5.01671e-05
4.62316e-05
4.3511e-05
4.17615e-05
3.55452e-05
2.55915e-05
2.04117e-05
1.40978e-05
9.27282e-06
8.22665e-06
1.03628e-05
2.12339e-05
1.04726e-05
3.80865e-07
1.47575e-07
5.44801e-06
1.46849e-05
3.18652e-05
5.18902e-05
6.5515e-05
7.35628e-05
7.85426e-05
8.146e-05
8.25905e-05
8.25556e-05
8.16489e-05
8.01508e-05
7.83043e-05
7.6168e-05
7.36023e-05
7.07054e-05
6.76047e-05
6.43311e-05
6.06912e-05
5.65987e-05
5.24052e-05
4.85568e-05
4.57811e-05
4.4192e-05
3.85221e-05
2.853e-05
2.33036e-05
1.56972e-05
9.57796e-06
7.66231e-06
9.28842e-06
1.92768e-05
1.03149e-05
4.00264e-07
1.51387e-07
5.4605e-06
1.47069e-05
3.20576e-05
5.24757e-05
6.60519e-05
7.37933e-05
7.85601e-05
8.14648e-05
8.30258e-05
8.33639e-05
8.27319e-05
8.15379e-05
8.04179e-05
7.84388e-05
7.49515e-05
7.14863e-05
6.84005e-05
6.54616e-05
6.2428e-05
5.91008e-05
5.54706e-05
5.18655e-05
4.89671e-05
4.69807e-05
4.06888e-05
3.00854e-05
2.48803e-05
1.67996e-05
9.99828e-06
7.68657e-06
8.87655e-06
1.84512e-05
9.93005e-06
4.23436e-07
1.65564e-07
5.55828e-06
1.49719e-05
3.27639e-05
5.34211e-05
6.66051e-05
7.38522e-05
7.8337e-05
8.10293e-05
8.25735e-05
8.31483e-05
8.29989e-05
8.18206e-05
7.8628e-05
7.52421e-05
7.32788e-05
7.15864e-05
6.95371e-05
6.71573e-05
6.44775e-05
6.14426e-05
5.80651e-05
5.46481e-05
5.18374e-05
4.92627e-05
4.30205e-05
3.24267e-05
2.65294e-05
1.77474e-05
1.02455e-05
7.57776e-06
8.59298e-06
1.80774e-05
9.58e-06
4.39167e-07
1.80109e-07
5.60525e-06
1.52601e-05
3.37446e-05
5.4735e-05
6.73289e-05
7.39316e-05
7.78695e-05
7.99272e-05
8.09165e-05
8.1001e-05
8.07938e-05
7.99491e-05
7.78354e-05
7.57681e-05
7.38952e-05
7.18222e-05
6.9501e-05
6.7125e-05
6.48596e-05
6.26727e-05
6.03516e-05
5.78362e-05
5.52353e-05
5.19681e-05
4.45035e-05
3.36911e-05
2.87722e-05
1.95652e-05
1.10763e-05
7.87814e-06
8.44785e-06
1.728e-05
9.63543e-06
4.69221e-07
2.12343e-07
5.85709e-06
1.61693e-05
3.59091e-05
5.68319e-05
6.85247e-05
7.44927e-05
7.79228e-05
7.94968e-05
8.00554e-05
7.96275e-05
7.82461e-05
7.61805e-05
7.52801e-05
7.45167e-05
7.27518e-05
7.06014e-05
6.86424e-05
6.70111e-05
6.6072e-05
6.57984e-05
6.54164e-05
6.42435e-05
6.173e-05
5.68047e-05
4.77389e-05
3.66224e-05
3.13154e-05
2.10299e-05
1.17974e-05
8.12579e-06
8.38691e-06
1.72515e-05
9.34395e-06
4.92173e-07
2.42397e-07
6.0567e-06
1.694e-05
3.76935e-05
5.86035e-05
6.95538e-05
7.48632e-05
7.7446e-05
7.83168e-05
7.80847e-05
7.74248e-05
7.61201e-05
7.49014e-05
7.32015e-05
7.0498e-05
6.8007e-05
6.62671e-05
6.53691e-05
6.50989e-05
6.59978e-05
6.86001e-05
7.16163e-05
7.3351e-05
7.24365e-05
6.73454e-05
5.62927e-05
4.17654e-05
3.23086e-05
2.01756e-05
1.15169e-05
8.29492e-06
9.02577e-06
1.96526e-05
8.95391e-06
4.91533e-07
2.78528e-07
6.36554e-06
1.81612e-05
4.00426e-05
5.9976e-05
7.01453e-05
7.48061e-05
7.65605e-05
7.69677e-05
7.68258e-05
7.60427e-05
7.47071e-05
7.2367e-05
6.87997e-05
6.52261e-05
6.2295e-05
6.08567e-05
6.13097e-05
6.33415e-05
6.69397e-05
7.22758e-05
7.80594e-05
8.18746e-05
8.22164e-05
7.73613e-05
6.45943e-05
4.74016e-05
3.3648e-05
1.97817e-05
1.13776e-05
8.38306e-06
9.55174e-06
2.24908e-05
8.46968e-06
4.72411e-07
2.94247e-07
6.52457e-06
1.85119e-05
4.04865e-05
6.03736e-05
7.04612e-05
7.50102e-05
7.65388e-05
7.61543e-05
7.464e-05
7.22579e-05
6.93742e-05
6.60704e-05
6.25921e-05
5.92006e-05
5.66461e-05
5.58485e-05
5.7636e-05
6.20837e-05
6.79348e-05
7.5477e-05
8.44706e-05
9.07538e-05
9.28035e-05
8.8791e-05
7.45259e-05
5.33272e-05
3.49256e-05
1.97627e-05
1.13032e-05
8.4695e-06
1.02343e-05
2.49138e-05
8.21965e-06
4.50299e-07
2.94464e-07
6.55668e-06
1.87113e-05
4.09526e-05
6.11392e-05
7.09378e-05
7.50001e-05
7.59431e-05
7.48591e-05
7.27428e-05
7.0135e-05
6.72804e-05
6.43572e-05
6.13879e-05
5.82634e-05
5.51607e-05
5.28153e-05
5.20743e-05
5.40563e-05
6.00783e-05
7.07246e-05
8.32186e-05
9.36951e-05
0.000100222
9.91823e-05
8.37135e-05
5.89275e-05
3.58597e-05
1.97412e-05
1.15893e-05
8.87829e-06
1.11195e-05
2.76499e-05
7.87006e-06
4.20379e-07
2.73927e-07
6.43283e-06
1.80925e-05
3.94063e-05
5.95185e-05
7.01663e-05
7.45416e-05
7.54671e-05
7.45192e-05
7.2372e-05
6.94988e-05
6.63355e-05
6.31387e-05
5.99892e-05
5.69547e-05
5.4134e-05
5.1675e-05
4.99624e-05
4.95488e-05
5.15255e-05
5.7653e-05
6.977e-05
8.55087e-05
9.77734e-05
0.000100971
8.90707e-05
6.58652e-05
3.90468e-05
2.08398e-05
1.20985e-05
9.30156e-06
1.17806e-05
2.8603e-05
7.91279e-06
4.16456e-07
2.51375e-07
6.24397e-06
1.70869e-05
3.76803e-05
5.91781e-05
7.02213e-05
7.47285e-05
7.58017e-05
7.48142e-05
7.27101e-05
7.00247e-05
6.70374e-05
6.39063e-05
6.07102e-05
5.7462e-05
5.41835e-05
5.11663e-05
4.83872e-05
4.60605e-05
4.50993e-05
4.69196e-05
5.34571e-05
6.58623e-05
8.10392e-05
9.21049e-05
9.24908e-05
7.21653e-05
4.48204e-05
2.4706e-05
1.35817e-05
9.72994e-06
1.1974e-05
2.84069e-05
7.99711e-06
4.22197e-07
2.3495e-07
6.08082e-06
1.66294e-05
3.6477e-05
5.76462e-05
6.9734e-05
7.50874e-05
7.66907e-05
7.59587e-05
7.39482e-05
7.12257e-05
6.81775e-05
6.50529e-05
6.19718e-05
5.90088e-05
5.60759e-05
5.28258e-05
4.96138e-05
4.69426e-05
4.46235e-05
4.30036e-05
4.39908e-05
4.99611e-05
6.65654e-05
8.83394e-05
8.67917e-05
7.11955e-05
5.13145e-05
3.11967e-05
1.71638e-05
1.10941e-05
1.20197e-05
2.62913e-05
8.40818e-06
4.66659e-07
2.34276e-07
5.92996e-06
1.58897e-05
3.5078e-05
5.69687e-05
6.97974e-05
7.56668e-05
7.78807e-05
7.75808e-05
7.58921e-05
7.32649e-05
7.00257e-05
6.6423e-05
6.26343e-05
5.89454e-05
5.54537e-05
5.26782e-05
5.06853e-05
4.89458e-05
4.70299e-05
4.46745e-05
4.31266e-05
4.54471e-05
5.89402e-05
7.64104e-05
7.77065e-05
7.16139e-05
5.53964e-05
3.61721e-05
2.1181e-05
1.31668e-05
1.27096e-05
2.5981e-05
8.71018e-06
5.16486e-07
2.48997e-07
5.94342e-06
1.60213e-05
3.54903e-05
5.73156e-05
6.99957e-05
7.59522e-05
7.84495e-05
7.84057e-05
7.69311e-05
7.44087e-05
7.1154e-05
6.73991e-05
6.33827e-05
5.93596e-05
5.60451e-05
5.34568e-05
5.15661e-05
5.03056e-05
4.87816e-05
4.65206e-05
4.45114e-05
4.54338e-05
5.62454e-05
7.02689e-05
7.18652e-05
6.86235e-05
5.54816e-05
3.79392e-05
2.33278e-05
1.51973e-05
1.46283e-05
2.90809e-05
8.76826e-06
5.44287e-07
2.73822e-07
6.0651e-06
1.64361e-05
3.6239e-05
5.77521e-05
7.01492e-05
7.59987e-05
7.84263e-05
7.83712e-05
7.69639e-05
7.44692e-05
7.14274e-05
6.74963e-05
6.32014e-05
5.89869e-05
5.50246e-05
5.21161e-05
5.06637e-05
5.01598e-05
4.95184e-05
4.80349e-05
4.70379e-05
4.916e-05
5.84619e-05
6.66804e-05
6.68559e-05
6.48099e-05
5.35828e-05
3.73666e-05
2.40832e-05
1.69745e-05
1.74612e-05
3.38626e-05
8.65699e-06
5.45955e-07
2.98459e-07
6.21032e-06
1.69309e-05
3.70658e-05
5.81131e-05
7.01504e-05
7.58872e-05
7.81208e-05
7.806e-05
7.65727e-05
7.40853e-05
7.07217e-05
6.70815e-05
6.27524e-05
5.75783e-05
5.29473e-05
4.9908e-05
4.87262e-05
4.89965e-05
4.95742e-05
4.95904e-05
5.00687e-05
5.46345e-05
5.91645e-05
6.11211e-05
6.46312e-05
6.30294e-05
5.22625e-05
3.69546e-05
2.47104e-05
1.86575e-05
2.06012e-05
3.74215e-05
8.61186e-06
5.36202e-07
3.1843e-07
6.37474e-06
1.7434e-05
3.76236e-05
5.81233e-05
6.99642e-05
7.56716e-05
7.78411e-05
7.76458e-05
7.61436e-05
7.37037e-05
7.02665e-05
6.59675e-05
6.09543e-05
5.57734e-05
5.10299e-05
4.76171e-05
4.63371e-05
4.71752e-05
4.89719e-05
5.08273e-05
5.31613e-05
5.67146e-05
5.95935e-05
6.14541e-05
6.3407e-05
6.12398e-05
5.14793e-05
3.73478e-05
2.57245e-05
2.01943e-05
2.31836e-05
3.91056e-05
8.5911e-06
5.18168e-07
3.20319e-07
6.39886e-06
1.74767e-05
3.77053e-05
5.80103e-05
6.95912e-05
7.5111e-05
7.70745e-05
7.66955e-05
7.47763e-05
7.18624e-05
6.84491e-05
6.46651e-05
6.06491e-05
5.63695e-05
5.19069e-05
4.7611e-05
4.43661e-05
4.34657e-05
4.53852e-05
4.90712e-05
5.29004e-05
5.65166e-05
5.92559e-05
6.11904e-05
6.24894e-05
6.03563e-05
5.19936e-05
3.91966e-05
2.77594e-05
2.19549e-05
2.4985e-05
4.03839e-05
8.7566e-06
5.1188e-07
3.10211e-07
6.32344e-06
1.72153e-05
3.70739e-05
5.73484e-05
6.91951e-05
7.45253e-05
7.61341e-05
7.549e-05
7.34694e-05
7.07673e-05
6.76745e-05
6.43984e-05
6.09565e-05
5.72384e-05
5.31362e-05
4.88574e-05
4.51506e-05
4.29008e-05
4.27501e-05
4.53565e-05
5.0528e-05
5.61273e-05
5.86427e-05
5.93859e-05
6.04953e-05
5.88681e-05
5.21145e-05
4.09676e-05
3.00344e-05
2.4152e-05
2.72186e-05
4.18889e-05
9.02796e-06
5.17505e-07
2.88371e-07
6.22462e-06
1.65868e-05
3.56519e-05
5.64991e-05
6.8697e-05
7.42297e-05
7.59481e-05
7.50764e-05
7.26457e-05
6.92785e-05
6.57286e-05
6.25446e-05
6.04292e-05
5.84568e-05
5.57216e-05
5.18989e-05
4.73445e-05
4.33281e-05
4.11904e-05
4.18267e-05
4.70268e-05
5.23834e-05
5.44206e-05
5.72287e-05
5.87525e-05
5.7428e-05
5.17896e-05
4.23235e-05
3.25035e-05
2.71555e-05
3.07942e-05
4.32997e-05
9.22527e-06
5.30543e-07
2.72535e-07
6.13023e-06
1.62879e-05
3.50582e-05
5.57524e-05
6.83608e-05
7.42909e-05
7.61034e-05
7.48185e-05
7.12738e-05
6.65428e-05
6.30085e-05
6.18855e-05
6.12829e-05
6.06424e-05
5.94673e-05
5.71472e-05
5.32667e-05
4.80121e-05
4.25969e-05
3.97799e-05
4.36121e-05
4.85931e-05
5.03682e-05
5.42168e-05
5.63849e-05
5.54675e-05
5.06299e-05
4.26538e-05
3.44504e-05
3.03396e-05
3.50793e-05
4.44586e-05
9.45782e-06
5.50358e-07
2.71022e-07
6.06309e-06
1.58883e-05
3.43678e-05
5.56873e-05
6.85903e-05
7.42965e-05
7.56188e-05
7.3045e-05
6.79195e-05
6.35898e-05
6.15553e-05
6.1012e-05
6.18687e-05
6.31373e-05
6.3722e-05
6.27327e-05
5.93937e-05
5.38013e-05
4.69739e-05
4.14864e-05
4.29812e-05
4.59564e-05
4.65928e-05
5.08407e-05
5.38589e-05
5.35298e-05
4.95221e-05
4.28257e-05
3.63133e-05
3.39749e-05
4.00426e-05
4.50367e-05
9.63575e-06
5.73971e-07
2.88952e-07
6.11608e-06
1.60849e-05
3.5205e-05
5.67263e-05
6.857e-05
7.32653e-05
7.3263e-05
6.84967e-05
6.35157e-05
6.02466e-05
5.87029e-05
5.99328e-05
6.31285e-05
6.68745e-05
6.96082e-05
7.00259e-05
6.7422e-05
6.14103e-05
5.30809e-05
4.57458e-05
4.54029e-05
4.56954e-05
4.4376e-05
4.81131e-05
5.17106e-05
5.20426e-05
4.88101e-05
4.32508e-05
3.8295e-05
3.76875e-05
4.4874e-05
4.5372e-05
9.79859e-06
5.96703e-07
3.32072e-07
6.32909e-06
1.68702e-05
3.71227e-05
5.81584e-05
6.81841e-05
7.09481e-05
6.75417e-05
6.29278e-05
5.82639e-05
5.46745e-05
5.51999e-05
5.94947e-05
6.60609e-05
7.27332e-05
7.74212e-05
7.85945e-05
7.5541e-05
6.8422e-05
5.90696e-05
5.13822e-05
4.99047e-05
4.7864e-05
4.48076e-05
4.69367e-05
5.01107e-05
5.10355e-05
4.84905e-05
4.38411e-05
4.00795e-05
4.08295e-05
4.86905e-05
4.57319e-05
9.94093e-06
6.2058e-07
3.93721e-07
6.68139e-06
1.81565e-05
4.01034e-05
6.00046e-05
6.72911e-05
6.72756e-05
6.38948e-05
5.72986e-05
5.05355e-05
4.84674e-05
5.20856e-05
6.05046e-05
7.1337e-05
8.1289e-05
8.74027e-05
8.81383e-05
8.34424e-05
7.47358e-05
6.4724e-05
5.64525e-05
5.26887e-05
4.89993e-05
4.56886e-05
4.66313e-05
4.91758e-05
5.02488e-05
4.83323e-05
4.46366e-05
4.20993e-05
4.41987e-05
5.25882e-05
4.52874e-05
9.9064e-06
6.24833e-07
4.5497e-07
7.06002e-06
1.9912e-05
4.35345e-05
6.114e-05
6.69402e-05
6.56812e-05
5.81291e-05
4.87157e-05
4.31777e-05
4.38301e-05
5.09864e-05
6.33471e-05
7.75723e-05
8.93744e-05
9.54073e-05
9.48144e-05
8.84649e-05
7.85582e-05
6.81779e-05
5.97504e-05
5.39568e-05
4.93418e-05
4.64137e-05
4.65506e-05
4.84822e-05
4.96139e-05
4.83059e-05
4.55398e-05
4.41168e-05
4.73053e-05
5.5803e-05
4.47391e-05
9.88577e-06
6.22818e-07
4.71108e-07
7.17269e-06
2.02347e-05
4.39824e-05
6.13737e-05
6.53876e-05
6.11966e-05
5.38847e-05
4.66206e-05
4.138e-05
4.01312e-05
4.5195e-05
5.81371e-05
7.59648e-05
9.12072e-05
9.94013e-05
9.91485e-05
9.17323e-05
8.04917e-05
6.93027e-05
6.08698e-05
5.42216e-05
4.91712e-05
4.66381e-05
4.65494e-05
4.80218e-05
4.90939e-05
4.83272e-05
4.65153e-05
4.62796e-05
5.07429e-05
5.92234e-05
4.34886e-05
9.79048e-06
6.10102e-07
4.70438e-07
7.18662e-06
2.05706e-05
4.50708e-05
6.08607e-05
6.37438e-05
6.07667e-05
5.44959e-05
4.71379e-05
4.07417e-05
3.7742e-05
4.00101e-05
4.89977e-05
6.54565e-05
8.54069e-05
9.95075e-05
0.000102758
9.57826e-05
8.32368e-05
7.06031e-05
6.08408e-05
5.39111e-05
4.90812e-05
4.6575e-05
4.65023e-05
4.79099e-05
4.90806e-05
4.88241e-05
4.79622e-05
4.90334e-05
5.4902e-05
6.23225e-05
4.21688e-05
9.70363e-06
6.00354e-07
4.62966e-07
7.1773e-06
2.05978e-05
4.4336e-05
5.98214e-05
6.33393e-05
6.11458e-05
5.58654e-05
4.90824e-05
4.19793e-05
3.64316e-05
3.54418e-05
4.10192e-05
5.46537e-05
7.55312e-05
9.58377e-05
0.000105379
0.00010093
8.75002e-05
7.28114e-05
6.12846e-05
5.34223e-05
4.84124e-05
4.6038e-05
4.60803e-05
4.75269e-05
4.89826e-05
4.95418e-05
4.99881e-05
5.25988e-05
5.93849e-05
6.49067e-05
4.10978e-05
9.69654e-06
5.99619e-07
4.59182e-07
7.17178e-06
2.03773e-05
4.39232e-05
5.96834e-05
6.34728e-05
6.16072e-05
5.68967e-05
5.07399e-05
4.37854e-05
3.71079e-05
3.3224e-05
3.51732e-05
4.48739e-05
6.32601e-05
8.69827e-05
0.000104231
0.000105609
9.30894e-05
7.64052e-05
6.22078e-05
5.24421e-05
4.69258e-05
4.48476e-05
4.53189e-05
4.70823e-05
4.89207e-05
5.02736e-05
5.20834e-05
5.62615e-05
6.35647e-05
6.66478e-05
3.9808e-05
9.64744e-06
5.9449e-07
4.58143e-07
7.16462e-06
2.02842e-05
4.36545e-05
5.94459e-05
6.34635e-05
6.20586e-05
5.79209e-05
5.21758e-05
4.52578e-05
3.80917e-05
3.27359e-05
3.19444e-05
3.82155e-05
5.359e-05
7.69933e-05
9.95101e-05
0.000108489
0.000100011
8.26198e-05
6.46815e-05
5.17728e-05
4.5049e-05
4.2813e-05
4.34867e-05
4.57887e-05
4.84926e-05
5.10833e-05
5.43076e-05
5.97077e-05
6.675e-05
6.73818e-05
3.87767e-05
9.60157e-06
5.88791e-07
4.62041e-07
7.15984e-06
2.02178e-05
4.33799e-05
5.92216e-05
6.36523e-05
6.27753e-05
5.90594e-05
5.35708e-05
4.64018e-05
3.84452e-05
3.20792e-05
2.98327e-05
3.40855e-05
4.6797e-05
6.85302e-05
9.40025e-05
0.000110328
0.000108258
9.21845e-05
7.08141e-05
5.39305e-05
4.4408e-05
4.05675e-05
4.07146e-05
4.33321e-05
4.69184e-05
5.07541e-05
5.54298e-05
6.18267e-05
6.85734e-05
6.75225e-05
3.79492e-05
9.6033e-06
5.86661e-07
4.7344e-07
7.17657e-06
2.01499e-05
4.31661e-05
5.91815e-05
6.39217e-05
6.33002e-05
5.96075e-05
5.35218e-05
4.58259e-05
3.78823e-05
3.14613e-05
2.89343e-05
3.22431e-05
4.3095e-05
6.29912e-05
8.89659e-05
0.000110917
0.000117193
0.000105789
8.14279e-05
5.90402e-05
4.56758e-05
3.95607e-05
3.8634e-05
4.05535e-05
4.39077e-05
4.86129e-05
5.46494e-05
6.2071e-05
6.90632e-05
6.72491e-05
3.69436e-05
9.5564e-06
5.8666e-07
4.94501e-07
7.23032e-06
2.04615e-05
4.36845e-05
5.94945e-05
6.41597e-05
6.34609e-05
5.96703e-05
5.37996e-05
4.63974e-05
3.83561e-05
3.13801e-05
2.80863e-05
3.06231e-05
4.01137e-05
5.77345e-05
8.28897e-05
0.00010816
0.000121319
0.000118054
9.50398e-05
6.78679e-05
4.94024e-05
3.95956e-05
3.62575e-05
3.74948e-05
4.11382e-05
4.55997e-05
5.17175e-05
6.0467e-05
6.83304e-05
6.6835e-05
3.62648e-05
9.51503e-06
5.88837e-07
4.97773e-07
7.22731e-06
2.05731e-05
4.39048e-05
5.9523e-05
6.39396e-05
6.30941e-05
5.94935e-05
5.40261e-05
4.75119e-05
3.99877e-05
3.30426e-05
2.88088e-05
2.84235e-05
3.45961e-05
4.89913e-05
7.04084e-05
9.49613e-05
0.000114718
0.000121457
0.000106774
7.98677e-05
5.68877e-05
4.20626e-05
3.52277e-05
3.40654e-05
3.66606e-05
4.16625e-05
4.80387e-05
5.63999e-05
6.58522e-05
6.59286e-05
3.5879e-05
9.47459e-06
5.9327e-07
4.72929e-07
7.08271e-06
2.02713e-05
4.36646e-05
5.92298e-05
6.33139e-05
6.26017e-05
5.96315e-05
5.54742e-05
5.02585e-05
4.47712e-05
3.88039e-05
3.25108e-05
2.83318e-05
2.76918e-05
3.32322e-05
4.85474e-05
7.19562e-05
9.68335e-05
0.000110973
0.000107601
9.07976e-05
6.81813e-05
4.90457e-05
3.70902e-05
3.23768e-05
3.27748e-05
3.67262e-05
4.30435e-05
5.14617e-05
6.12977e-05
6.45456e-05
3.67453e-05
9.56284e-06
6.23873e-07
4.11874e-07
6.79943e-06
1.93593e-05
4.26027e-05
5.92148e-05
6.38832e-05
6.29909e-05
6.01366e-05
5.70124e-05
5.43582e-05
5.12747e-05
4.63106e-05
3.95515e-05
3.22912e-05
2.68038e-05
2.47868e-05
2.7942e-05
4.11805e-05
6.59686e-05
9.37483e-05
0.000106063
9.84196e-05
8.12349e-05
6.07765e-05
4.49782e-05
3.53711e-05
3.18381e-05
3.25227e-05
3.72777e-05
4.62518e-05
5.73344e-05
6.37121e-05
3.83748e-05
9.84331e-06
6.7835e-07
3.74068e-07
6.56833e-06
1.86569e-05
4.18227e-05
5.92489e-05
6.40791e-05
6.3809e-05
6.19671e-05
5.9828e-05
5.74993e-05
5.4649e-05
5.07858e-05
4.52666e-05
3.81032e-05
3.04896e-05
2.473e-05
2.23721e-05
2.50672e-05
4.09664e-05
7.28701e-05
9.36933e-05
0.000103323
9.51965e-05
7.60099e-05
5.43218e-05
4.00067e-05
3.30563e-05
3.19669e-05
3.51037e-05
4.20824e-05
5.42083e-05
6.31979e-05
3.93713e-05
1.00044e-05
7.39732e-07
3.74885e-07
6.3892e-06
1.79116e-05
4.02904e-05
5.80652e-05
6.40776e-05
6.54035e-05
6.45457e-05
6.27968e-05
6.0486e-05
5.7585e-05
5.34392e-05
4.71529e-05
3.70693e-05
2.91605e-05
2.52488e-05
2.32558e-05
2.33738e-05
3.35014e-05
6.04074e-05
8.64535e-05
0.000109022
0.000107966
9.083e-05
6.96847e-05
4.95265e-05
3.68604e-05
3.21497e-05
3.34331e-05
4.09602e-05
5.42507e-05
6.40518e-05
4.10844e-05
1.0363e-05
8.08469e-07
4.47061e-07
6.65559e-06
1.88025e-05
4.17927e-05
5.90324e-05
6.5169e-05
6.72411e-05
6.73449e-05
6.66149e-05
6.48429e-05
6.15849e-05
5.49864e-05
4.38804e-05
3.31484e-05
2.61735e-05
2.34687e-05
2.46678e-05
2.91404e-05
4.17525e-05
6.76063e-05
9.78565e-05
0.000121478
0.000120234
0.000102093
7.95513e-05
5.90339e-05
4.34947e-05
3.48684e-05
3.34787e-05
3.94444e-05
5.28773e-05
6.47596e-05
3.95251e-05
1.008e-05
8.14293e-07
5.50373e-07
7.12484e-06
2.0316e-05
4.38781e-05
5.95184e-05
6.54627e-05
6.79312e-05
6.8552e-05
6.79176e-05
6.60366e-05
6.17347e-05
5.25238e-05
3.83015e-05
2.54631e-05
2.04358e-05
2.3269e-05
3.3423e-05
4.62204e-05
5.92621e-05
8.52624e-05
0.000114943
0.000127734
0.000120925
0.000102989
8.19275e-05
6.22339e-05
4.68208e-05
3.76154e-05
3.56332e-05
4.2099e-05
5.64867e-05
6.52629e-05
3.89536e-05
9.88804e-06
7.95562e-07
6.29032e-07
7.40294e-06
2.16224e-05
4.52281e-05
5.99272e-05
6.57484e-05
6.81739e-05
6.87584e-05
6.77506e-05
6.47979e-05
5.76109e-05
4.55538e-05
3.18185e-05
2.21328e-05
1.95016e-05
2.44641e-05
4.05131e-05
5.78961e-05
6.56174e-05
8.6907e-05
0.00010801
0.000115188
0.000109291
9.51901e-05
7.80895e-05
6.15505e-05
4.83259e-05
4.03904e-05
3.91911e-05
4.57603e-05
5.94452e-05
6.60133e-05
3.58352e-05
9.40335e-06
6.99543e-07
6.43229e-07
7.49249e-06
2.22372e-05
4.68627e-05
6.0188e-05
6.48814e-05
6.65369e-05
6.64606e-05
6.51296e-05
6.25204e-05
5.84379e-05
4.82432e-05
3.36785e-05
2.33297e-05
1.8884e-05
2.05931e-05
3.32274e-05
4.98028e-05
5.87105e-05
7.84593e-05
9.76373e-05
0.000104188
9.92281e-05
8.79335e-05
7.4028e-05
6.04111e-05
4.96965e-05
4.35478e-05
4.3355e-05
5.06086e-05
6.33489e-05
6.69421e-05
3.48807e-05
9.16429e-06
6.27233e-07
6.22233e-07
7.4669e-06
2.25176e-05
4.6615e-05
5.96541e-05
6.43854e-05
6.60984e-05
6.63727e-05
6.58341e-05
6.44429e-05
6.18537e-05
5.65156e-05
4.55296e-05
3.113e-05
2.03711e-05
1.65886e-05
2.09102e-05
3.27111e-05
4.56839e-05
6.81974e-05
8.60187e-05
9.27519e-05
9.03541e-05
8.1902e-05
7.12408e-05
6.08124e-05
5.24214e-05
4.80224e-05
4.93388e-05
5.69535e-05
6.76202e-05
6.74706e-05
3.38605e-05
8.98121e-06
5.69172e-07
5.71792e-07
7.22281e-06
2.11857e-05
4.45553e-05
5.90958e-05
6.47933e-05
6.7048e-05
6.75272e-05
6.69281e-05
6.55346e-05
6.32854e-05
5.99953e-05
5.54868e-05
4.42384e-05
2.86747e-05
1.84579e-05
1.64255e-05
2.16457e-05
3.26101e-05
4.67265e-05
6.60389e-05
7.93329e-05
8.29105e-05
7.80071e-05
6.97696e-05
6.15027e-05
5.5144e-05
5.21117e-05
5.40019e-05
6.1506e-05
7.06072e-05
6.88892e-05
3.47654e-05
9.12976e-06
5.54116e-07
5.53897e-07
7.12629e-06
2.10179e-05
4.42041e-05
5.89535e-05
6.50911e-05
6.78652e-05
6.89451e-05
6.89572e-05
6.83403e-05
6.6996e-05
6.45671e-05
5.96038e-05
5.07844e-05
3.81654e-05
2.5421e-05
1.77257e-05
1.80688e-05
2.32438e-05
3.13185e-05
4.73949e-05
6.07643e-05
6.81304e-05
7.05372e-05
6.71636e-05
6.18034e-05
5.74206e-05
5.62968e-05
5.92004e-05
6.55319e-05
7.24833e-05
6.93988e-05
3.52716e-05
9.28745e-06
5.38418e-07
5.01799e-07
6.86724e-06
1.9869e-05
4.21174e-05
5.79892e-05
6.51118e-05
6.85172e-05
6.99514e-05
7.01133e-05
6.97928e-05
6.87039e-05
6.69983e-05
6.46582e-05
6.1389e-05
5.34769e-05
3.91427e-05
2.50292e-05
1.70798e-05
1.65861e-05
2.07344e-05
2.94773e-05
4.58063e-05
5.76855e-05
6.16328e-05
6.20568e-05
5.99611e-05
5.74496e-05
5.75202e-05
6.10891e-05
6.74912e-05
7.32636e-05
7.00295e-05
3.70402e-05
9.55194e-06
5.40377e-07
4.50697e-07
6.59053e-06
1.88051e-05
4.06413e-05
5.75889e-05
6.53878e-05
6.91262e-05
7.10187e-05
7.1655e-05
7.05865e-05
6.92889e-05
6.8024e-05
6.69666e-05
6.5889e-05
6.38516e-05
5.74846e-05
4.34878e-05
2.73143e-05
1.82482e-05
1.46136e-05
1.71532e-05
2.78276e-05
4.08415e-05
5.15061e-05
5.73113e-05
5.93121e-05
5.89698e-05
5.87539e-05
6.14792e-05
6.8069e-05
7.42473e-05
7.08947e-05
3.78122e-05
9.90788e-06
5.69006e-07
4.21055e-07
6.37611e-06
1.79531e-05
3.90536e-05
5.67774e-05
6.56617e-05
7.03249e-05
7.28145e-05
7.38883e-05
7.39703e-05
7.42448e-05
7.42011e-05
7.32915e-05
7.15026e-05
6.84423e-05
6.38026e-05
5.57654e-05
4.19714e-05
2.63165e-05
1.70744e-05
1.49642e-05
1.73371e-05
2.49903e-05
3.88834e-05
4.78022e-05
5.33212e-05
5.7381e-05
6.05601e-05
6.46553e-05
6.97984e-05
7.41974e-05
7.06076e-05
3.93055e-05
1.02089e-05
5.99319e-07
4.03767e-07
6.22494e-06
1.73193e-05
3.78785e-05
5.63554e-05
6.61698e-05
7.12888e-05
7.41788e-05
7.57754e-05
7.68379e-05
7.73067e-05
7.71704e-05
7.65631e-05
7.50944e-05
7.27491e-05
6.91535e-05
6.35885e-05
5.41599e-05
3.9335e-05
2.40018e-05
1.54968e-05
1.4305e-05
1.79785e-05
2.66819e-05
4.02475e-05
4.80487e-05
5.29542e-05
5.78705e-05
6.28768e-05
6.84e-05
7.25682e-05
6.93367e-05
3.95389e-05
1.03398e-05
6.1964e-07
3.75589e-07
5.9639e-06
1.64418e-05
3.64598e-05
5.54396e-05
6.55983e-05
7.09986e-05
7.41798e-05
7.59733e-05
7.72218e-05
7.7912e-05
7.80648e-05
7.77821e-05
7.68745e-05
7.54163e-05
7.32044e-05
6.95856e-05
6.33292e-05
5.25519e-05
3.70205e-05
2.27565e-05
1.5936e-05
1.4322e-05
1.67491e-05
2.56659e-05
3.87749e-05
4.76512e-05
5.36028e-05
5.9184e-05
6.50921e-05
6.99094e-05
6.78208e-05
3.99526e-05
1.04629e-05
6.53127e-07
3.71289e-07
5.85635e-06
1.61526e-05
3.58967e-05
5.46547e-05
6.49289e-05
7.08417e-05
7.45856e-05
7.70511e-05
7.87157e-05
7.97597e-05
8.02916e-05
8.00133e-05
7.92203e-05
7.78626e-05
7.57282e-05
7.25754e-05
6.79979e-05
6.09318e-05
4.95542e-05
3.38459e-05
2.01587e-05
1.57533e-05
1.47306e-05
1.67068e-05
2.68717e-05
3.93375e-05
4.81451e-05
5.60259e-05
6.31201e-05
6.84239e-05
6.66035e-05
3.97556e-05
1.05701e-05
7.05021e-07
3.72716e-07
5.76613e-06
1.5769e-05
3.49586e-05
5.38737e-05
6.49386e-05
7.1335e-05
7.53721e-05
7.79286e-05
7.98097e-05
8.1361e-05
8.26111e-05
8.35627e-05
8.36774e-05
8.28991e-05
8.14448e-05
7.88891e-05
7.46531e-05
6.79331e-05
5.74395e-05
4.26566e-05
2.72438e-05
2.02897e-05
1.64145e-05
1.42617e-05
1.74971e-05
2.80969e-05
4.14244e-05
5.2274e-05
6.09872e-05
6.64723e-05
6.50894e-05
4.06318e-05
1.08162e-05
7.86722e-07
3.87857e-07
5.74921e-06
1.57699e-05
3.49713e-05
5.38704e-05
6.47314e-05
7.11574e-05
7.55821e-05
7.86117e-05
8.1046e-05
8.29009e-05
8.42557e-05
8.5106e-05
8.60179e-05
8.66587e-05
8.62118e-05
8.44916e-05
8.06107e-05
7.40229e-05
6.43252e-05
5.09617e-05
3.45599e-05
2.07232e-05
1.62353e-05
1.43231e-05
1.51475e-05
2.3122e-05
3.59617e-05
4.97665e-05
6.00565e-05
6.59373e-05
6.38919e-05
3.75953e-05
1.03491e-05
7.89163e-07
4.06977e-07
5.79952e-06
1.57196e-05
3.44203e-05
5.29493e-05
6.39896e-05
7.06222e-05
7.52e-05
7.86902e-05
8.1597e-05
8.38279e-05
8.54345e-05
8.64241e-05
8.71492e-05
8.77241e-05
8.79222e-05
8.75633e-05
8.60589e-05
8.18932e-05
7.20141e-05
5.49958e-05
3.57872e-05
2.17975e-05
1.59244e-05
1.35239e-05
1.47544e-05
2.22511e-05
3.48718e-05
4.88238e-05
6.03135e-05
6.63488e-05
6.37826e-05
3.64449e-05
1.00513e-05
7.5147e-07
4.13115e-07
5.84071e-06
1.58117e-05
3.41361e-05
5.24155e-05
6.35815e-05
7.02346e-05
7.47002e-05
7.82032e-05
8.1121e-05
8.32277e-05
8.46555e-05
8.55731e-05
8.61844e-05
8.67444e-05
8.71898e-05
8.70833e-05
8.58627e-05
8.24549e-05
7.41089e-05
5.68823e-05
3.63485e-05
2.29562e-05
1.52838e-05
1.30372e-05
1.55323e-05
2.29423e-05
3.49733e-05
4.77966e-05
5.86788e-05
6.498e-05
6.17446e-05
3.3377e-05
9.53127e-06
6.5757e-07
4.06515e-07
5.75698e-06
1.53973e-05
3.34822e-05
5.17485e-05
6.27605e-05
6.92755e-05
7.36358e-05
7.68251e-05
7.93001e-05
8.12078e-05
8.21949e-05
8.26865e-05
8.29017e-05
8.30098e-05
8.3056e-05
8.28637e-05
8.18969e-05
7.97857e-05
7.54727e-05
6.36582e-05
4.37467e-05
2.82422e-05
1.67364e-05
1.32058e-05
1.55329e-05
2.21148e-05
3.24993e-05
4.44517e-05
5.4814e-05
6.14835e-05
5.93232e-05
3.24052e-05
9.22929e-06
5.89483e-07
3.90184e-07
5.6845e-06
1.5159e-05
3.28757e-05
5.09757e-05
6.19171e-05
6.81592e-05
7.20389e-05
7.476e-05
7.68585e-05
7.83725e-05
7.93103e-05
7.96335e-05
7.96402e-05
7.95363e-05
7.95806e-05
7.96477e-05
7.91351e-05
7.77647e-05
7.61311e-05
7.13062e-05
5.6892e-05
3.93627e-05
2.306e-05
1.56465e-05
1.52052e-05
1.89264e-05
2.63378e-05
3.67795e-05
4.78662e-05
5.63321e-05
5.86078e-05
3.39788e-05
9.35603e-06
5.89537e-07
3.70881e-07
5.5593e-06
1.47864e-05
3.20832e-05
5.00679e-05
6.08324e-05
6.67035e-05
7.0075e-05
7.22249e-05
7.39057e-05
7.53398e-05
7.65771e-05
7.73265e-05
7.77411e-05
7.77349e-05
7.75502e-05
7.73762e-05
7.71489e-05
7.65915e-05
7.68653e-05
7.70947e-05
7.32458e-05
6.07316e-05
4.12358e-05
2.57112e-05
1.83045e-05
1.71341e-05
2.00547e-05
2.65521e-05
3.61493e-05
4.75438e-05
5.51217e-05
3.64685e-05
9.74669e-06
6.65404e-07
3.54075e-07
5.48219e-06
1.45235e-05
3.14316e-05
4.94859e-05
6.02133e-05
6.56135e-05
6.82664e-05
6.94094e-05
7.03946e-05
7.17103e-05
7.35368e-05
7.53252e-05
7.70452e-05
7.81138e-05
7.83006e-05
7.79048e-05
7.73925e-05
7.71617e-05
7.89375e-05
8.27696e-05
8.54241e-05
8.23955e-05
7.23236e-05
5.02411e-05
2.99336e-05
2.0226e-05
1.79803e-05
1.98928e-05
2.60714e-05
3.69824e-05
5.06958e-05
4.19169e-05
1.04865e-05
8.03381e-07