/*--------------------------------*- C++ -*----------------------------------*\
| =========                 |                                                 |
| \\      /  F ield         | OpenFOAM: The Open Source CFD Toolbox           |
|  \\    /   O peration     | Version:  2.0.x                                 |
|   \\  /    A nd           | Web:      www.OpenFOAM.org                      |
|    \\/     M anipulation  |                                                 |
\*---------------------------------------------------------------------------*/
FoamFile
{
    version     2.0;
    format      ascii;
    class       volScalarField;
    location    "400";
    object      omega;
}
// * * * * * * * * * * * * * * * * * * * * * * * * * * * * * * * * * * * * * //

dimensions      [0 0 -1 0 0 0 0];

internalField   nonuniform List<scalar> 
78750
(
1022.05
5.78412
6.25988
6.45062
6.59417
6.75246
6.90565
7.03496
7.14602
7.24078
7.32234
7.39007
7.44431
7.48747
7.51949
7.54518
7.56065
7.57288
7.59965
7.61724
7.62522
7.61936
7.60502
7.58345
7.55661
7.52306
7.48695
7.44907
7.40819
7.36342
7.31279
7.25244
7.17264
6.85078
1091.93
1021.91
4.983
5.40199
5.79596
6.2189
6.62316
6.98062
7.28474
7.53304
7.73258
7.90072
8.03157
8.1254
8.19334
8.24019
8.26558
8.27155
8.2654
8.22288
8.16728
8.11129
8.05494
7.99841
7.94214
7.88782
7.83589
7.77458
7.70815
7.63701
7.55841
7.47114
7.3713
7.21983
6.86439
1093.26
1021.76
4.97906
5.78772
6.51313
7.12243
7.59517
7.92974
8.16438
8.33091
8.44568
8.51126
8.54434
8.55252
8.54592
8.51699
8.46867
8.40285
8.32408
8.24216
8.15336
8.06025
7.96498
7.87003
7.78171
7.69672
7.62095
7.56717
7.53177
7.50706
7.48252
7.44158
7.36162
7.20941
6.965
1094.34
1021.84
5.52119
6.57698
7.32113
7.78576
8.06089
8.23848
8.36396
8.45553
8.52174
8.56724
8.59179
8.59398
8.5807
8.54432
8.48921
8.41632
8.32685
8.22517
8.11024
7.97934
7.83485
7.69088
7.55082
7.4181
7.31598
7.24426
7.20827
7.20927
7.23353
7.25255
7.23565
7.13959
6.97514
1094.41
1022.1
5.89859
6.91988
7.55268
7.94832
8.21976
8.42387
8.58261
8.70333
8.78898
8.84135
8.8622
8.85675
8.82239
8.7619
8.67695
8.56976
8.44404
8.30216
8.14537
7.97793
7.80137
7.61921
7.43167
7.25517
7.11073
7.00979
6.95934
6.96479
7.01989
7.08269
7.10882
7.07132
6.94806
1094.27
1022.32
6.1724
7.17204
7.77773
8.14799
8.39574
8.57563
8.70927
8.8065
8.87286
8.91154
8.9242
8.91367
8.8792
8.82205
8.74281
8.64197
8.52072
8.37984
8.21929
8.03927
7.84165
7.63241
7.42106
7.21052
7.01744
6.86812
6.77698
6.7678
6.81968
6.91839
6.98917
6.98289
6.86454
1094.03
1022.5
6.28085
7.25113
7.84661
8.22224
8.48519
8.68521
8.84089
8.95986
9.04597
9.10154
9.12815
9.1275
9.10181
9.05106
8.97681
8.88009
8.76199
8.62424
8.46779
8.29124
8.09415
7.87882
7.65299
7.42318
7.18799
6.96595
6.79218
6.69451
6.69723
6.7838
6.87832
6.89157
6.78966
1093.92
1022.6
6.38754
7.35582
7.95163
8.32915
8.59143
8.78785
8.93803
9.05105
9.13212
9.18457
9.21058
9.21184
9.19123
9.14741
9.08174
8.99457
8.88639
8.75802
8.61095
8.44347
8.25406
8.04346
7.81767
7.58166
7.33144
7.07764
6.85397
6.69915
6.64387
6.68739
6.78561
6.80884
6.72091
1093.87
1022.65
6.40886
7.37932
7.99317
8.39147
8.67445
8.88927
9.05637
9.18535
9.2815
9.34821
9.38769
9.40166
9.39282
9.36119
9.30769
9.23281
9.1368
9.01984
8.88306
8.72766
8.55107
8.35136
8.12954
7.89116
7.63688
7.3576
7.0677
6.8071
6.65399
6.6435
6.70925
6.74029
6.66927
1093.88
1022.67
6.45855
7.4556
8.08163
8.48506
8.77072
8.98755
9.15468
9.2826
9.37762
9.44397
9.4843
9.50052
9.49544
9.47013
9.42457
9.3591
9.27373
9.1683
9.04332
8.90032
8.73719
8.55131
8.34294
8.11802
7.87583
7.59793
7.2847
6.97783
6.72956
6.64655
6.66286
6.68304
6.63396
1093.95
1022.7
6.51236
7.53729
8.1825
8.59709
8.89099
9.11636
9.29223
9.42842
9.53075
9.60431
9.65154
9.67449
9.6752
9.65934
9.62208
9.56517
9.48854
9.39191
9.2755
9.1401
8.98634
8.81098
8.61327
8.39817
8.16584
7.89801
7.58831
7.2587
6.92649
6.6953
6.66071
6.66857
6.63481
1094.09
1022.72
6.57642
7.64304
8.30406
8.72162
9.01369
9.23548
9.40954
9.54529
9.6474
9.71902
9.76345
9.78488
9.78502
9.76941
9.7337
9.67927
9.60603
9.51364
9.40204
9.27157
9.12281
8.95255
8.76008
8.54992
8.32202
8.06015
7.76112
7.44173
7.10107
6.81437
6.69111
6.67619
6.65711
1094.26
1022.82
6.72297
7.81792
8.47944
8.88932
9.17374
9.38777
9.55846
9.69392
9.79836
9.87425
9.92311
9.94597
9.94573
9.92926
9.89386
9.84108
9.77116
9.6833
9.57659
9.45013
9.30364
9.13384
8.93975
8.72545
8.49104
8.22066
7.91184
7.58099
7.22401
6.90486
6.73875
6.69758
6.68796
1094.39
1022.92
6.83957
7.96363
8.6245
9.02376
9.29201
9.4971
9.66098
9.79082
9.89083
9.96401
10.0126
10.0387
10.0435
10.0333
10.0038
9.95814
9.89665
9.81765
9.72023
9.60154
9.45929
9.29114
9.09761
8.88283
8.64621
8.3732
8.06537
7.73974
7.37906
7.02457
6.80553
6.73972
6.74754
1094.62
1023.14
7.0553
8.17295
8.80611
9.17728
9.43063
9.62574
9.78061
9.90231
9.99538
10.0632
10.1072
10.1312
10.1383
10.1335
10.118
10.0909
10.0528
9.99653
9.91514
9.80413
9.65937
9.47999
9.26911
9.0345
8.77778
8.48782
8.17598
7.85907
7.51457
7.15687
6.90067
6.81077
6.82955
1094.79
1023.35
7.20246
8.2973
8.90781
9.2663
9.51041
9.69631
9.84073
9.95145
10.0342
10.0945
10.1285
10.1438
10.1473
10.1438
10.1354
10.1285
10.1153
10.0853
10.0297
9.94352
9.82072
9.6612
9.4658
9.23385
8.9602
8.63335
8.26959
7.91173
7.55706
7.224
6.987
6.89664
6.90486
1094.78
1023.6
7.36321
8.42655
9.01606
9.362
9.59793
9.77427
9.90753
10.0056
10.0737
10.1148
10.1376
10.1446
10.1423
10.1382
10.1346
10.1345
10.1365
10.1354
10.119
10.0578
9.94811
9.80121
9.61955
9.40246
9.14221
8.82032
8.42975
7.98933
7.57061
7.23982
7.03708
6.95982
6.94509
1094.66
1023.72
7.39845
8.44579
9.04153
9.39115
9.63049
9.80596
9.93433
10.0241
10.082
10.1155
10.1277
10.1214
10.0976
10.0732
10.0658
10.0782
10.1072
10.1363
10.1452
10.1213
10.0605
9.94861
9.79549
9.60281
9.36439
9.05935
8.66514
8.17528
7.64911
7.27555
7.08403
7.01265
6.96475
1094.5
1023.73
7.40502
8.46138
9.06697
9.43761
9.68615
9.86536
9.99319
10.0791
10.1292
10.1476
10.1435
10.1234
10.0942
10.0549
10.0143
9.9936
10.0053
10.0472
10.0935
10.118
10.1025
10.0451
9.9391
9.78319
9.57505
9.29153
8.8978
8.3723
7.78272
7.34712
7.13267
7.04524
6.95414
1094.27
1023.6
7.33597
8.42899
9.06429
9.44485
9.70725
9.90306
10.0488
10.1502
10.2098
10.2299
10.2182
10.18
10.1229
10.0602
10.0013
9.9549
9.92627
9.9243
9.96398
10.0265
10.0672
10.0632
10.009
9.90324
9.73224
9.47414
9.08524
8.52482
7.87507
7.408
7.18078
7.07612
6.95517
1094.24
1023.44
7.26438
8.39004
9.06374
9.46922
9.74626
9.95268
10.1087
10.2233
10.3008
10.3425
10.3495
10.3235
10.2666
10.1836
10.0864
9.99662
9.92758
9.88565
9.87659
9.89258
9.93866
9.98493
9.99593
9.95542
9.84698
9.6544
9.32746
8.79848
8.0914
7.50684
7.22427
7.09922
6.95964
1094.29
1023.32
7.23317
8.38117
9.0711
9.49832
9.79074
10.0086
10.1742
10.2973
10.3831
10.4348
10.4553
10.4498
10.4204
10.3701
10.3026
10.2224
10.1307
10.0335
9.94878
9.89579
9.88993
9.91962
9.95676
9.96169
9.92176
9.80211
9.56684
9.14897
8.49203
7.76447
7.32721
7.14246
7.00203
1094.62
1023.32
7.23221
8.40873
9.12983
9.57275
9.87384
10.098
10.2686
10.3961
10.4856
10.5393
10.5585
10.5496
10.5151
10.463
10.4033
10.3374
10.2652
10.1935
10.1243
10.0568
10.0008
9.97403
9.9783
9.98557
9.96969
9.89807
9.73672
9.42195
8.86995
8.11786
7.52752
7.24814
7.10162
1094.98
1023.41
7.31716
8.50502
9.21551
9.65218
9.95302
10.1808
10.3571
10.4901
10.5845
10.6435
10.6692
10.6669
10.6411
10.596
10.5376
10.4754
10.4176
10.3645
10.3119
10.2515
10.1844
10.1248
10.089
10.0716
10.0483
9.99029
9.86233
9.60687
9.13828
8.43618
7.75396
7.40323
7.23028
1095.18
1023.58
7.42736
8.59916
9.29936
9.73083
10.0303
10.2584
10.4365
10.5731
10.6723
10.7357
10.7646
10.7629
10.7363
10.6902
10.6357
10.5843
10.5434
10.5127
10.4823
10.438
10.3746
10.3035
10.2436
10.199
10.1532
10.0815
9.95116
9.70834
9.27552
8.6279
7.95007
7.56088
7.34543
1095.19
1023.76
7.52505
8.67861
9.36551
9.78898
10.0851
10.3122
10.4916
10.6318
10.7366
10.8068
10.8422
10.8431
10.8155
10.7596
10.6908
10.6283
10.5896
10.5804
10.5823
10.5715
10.5287
10.4679
10.4034
10.3374
10.2629
10.163
10.0084
9.75087
9.32993
8.73099
8.10158
7.70805
7.44516
1095.13
1023.9
7.58436
8.7209
9.40199
9.82316
10.1178
10.3445
10.5255
10.6705
10.7832
10.8632
10.908
10.9134
10.8812
10.8136
10.7261
10.6432
10.5925
10.5877
10.6133
10.6425
10.6554
10.636
10.5891
10.5166
10.4184
10.2848
10.0924
9.80087
9.36691
8.79065
8.20436
7.81774
7.51532
1095.02
1023.92
7.58855
8.72777
9.42067
9.8442
10.1384
10.3638
10.5454
10.6949
10.817
10.9118
10.9758
11.0021
10.9845
10.9224
10.8241
10.7101
10.6129
10.5677
10.5738
10.6224
10.6743
10.7078
10.7068
10.662
10.571
10.4282
10.217
9.9057
9.46073
8.88709
8.30943
7.91418
7.57992
1094.98
1023.87
7.55318
8.71295
9.42432
9.85868
10.1573
10.3838
10.5667
10.7209
10.8543
10.9687
11.0602
11.1184
11.1313
11.0911
10.9973
10.8629
10.7169
10.6016
10.5492
10.5599
10.6254
10.7004
10.751
10.7553
10.7011
10.5772
10.3731
10.0639
9.61813
9.03756
8.44317
8.0214
7.65457
1095.02
1023.72
7.49441
8.69577
9.42363
9.86727
10.1714
10.4011
10.5869
10.7461
10.8895
11.0211
11.1383
11.2287
11.2761
11.269
11.2005
11.0718
10.8995
10.7208
10.5816
10.5267
10.5548
10.6427
10.7378
10.7942
10.7905
10.7074
10.5304
10.2418
9.80856
9.22684
8.61419
8.15279
7.7397
1095.1
1023.6
7.48936
8.70082
9.44238
9.89528
10.2023
10.4316
10.6152
10.7744
10.9249
11.075
11.2224
11.3575
11.461
11.5119
11.4996
11.4183
11.2688
11.0654
10.8325
10.6349
10.5489
10.5791
10.6776
10.7754
10.8145
10.7791
10.64
10.3831
9.97593
9.41347
8.80375
8.31135
7.84982
1095.24
1023.59
7.52178
8.77253
9.5146
9.95526
10.25
10.4709
10.6479
10.8043
10.9607
11.1292
11.3125
11.4939
11.6453
11.7435
11.7743
11.7416
11.6352
11.4589
11.2192
10.9453
10.7222
10.6322
10.6643
10.7497
10.8165
10.8147
10.7215
10.4977
10.1173
9.57974
8.98857
8.47795
7.97429
1095.41
1023.7
7.66612
8.92209
9.6288
10.0362
10.3054
10.5136
10.6801
10.8348
11.0042
11.204
11.4295
11.656
11.846
11.978
12.0444
12.0441
11.9836
11.8514
11.6395
11.3505
11.0438
10.8263
10.7356
10.762
10.8179
10.8258
10.7599
10.5676
10.2199
9.71899
9.15991
8.64486
8.10533
1095.59
1023.98
7.87876
9.09951
9.75139
10.117
10.3535
10.5333
10.6888
10.8413
11.0181
11.2466
11.53
11.8063
12.0252
12.1714
12.2521
12.2702
12.2359
12.1389
11.9698
11.7207
11.4215
11.151
10.9559
10.8671
10.8546
10.8502
10.7904
10.6171
10.2958
9.82969
9.30461
8.79943
8.24688
1095.78
1024.41
8.1255
9.27164
9.85703
10.178
10.3814
10.5289
10.6551
10.7931
10.9808
11.2484
11.5628
11.87
12.1284
12.3105
12.4128
12.4495
12.4266
12.3473
12.2026
11.9876
11.723
11.4545
11.2206
11.0662
10.9883
10.9383
10.8525
10.6747
10.3641
9.92384
9.42995
8.93401
8.35919
1095.82
1024.85
8.30219
9.36963
9.90888
10.2017
10.3834
10.4999
10.5815
10.6822
10.8551
11.1388
11.5053
11.8577
12.1309
12.32
12.4379
12.4991
12.5132
12.4688
12.3598
12.1855
11.9607
11.7116
11.4702
11.2796
11.1526
11.0576
10.9386
10.743
10.4314
10.0077
9.5372
9.0486
8.45197
1095.82
1025
8.3342
9.38474
9.9189
10.2088
10.3859
10.4925
10.5447
10.5805
10.6789
10.8966
11.2381
11.6322
11.9737
12.224
12.3894
12.4851
12.5195
12.4994
12.4256
12.298
12.1196
11.9055
11.6781
11.475
11.3168
11.186
11.0367
10.8215
10.5051
10.0923
9.63969
9.15158
8.51907
1095.72
1025
8.33692
9.38584
9.91718
10.2059
10.3829
10.4903
10.5378
10.5481
10.5545
10.6599
10.9232
11.3068
11.7025
12.0178
12.2388
12.3805
12.4546
12.468
12.425
12.3309
12.1982
12.0315
11.8398
11.6497
11.4835
11.3312
11.1571
10.9209
10.594
10.1851
9.74046
9.24106
8.56286
1095.64
1024.95
8.31654
9.36857
9.90995
10.2064
10.3856
10.4927
10.542
10.5474
10.5296
10.5259
10.6829
11.0381
11.4625
11.8326
12.0991
12.2719
12.3696
12.4036
12.3814
12.3129
12.2127
12.0869
11.9297
11.7594
11.5976
11.44
11.2583
11.0168
10.6911
10.2918
9.85411
9.34178
8.61956
1095.63
1024.92
8.30685
9.36607
9.90931
10.2053
10.3868
10.4977
10.5494
10.554
10.5287
10.5043
10.5508
10.8039
11.2327
11.6505
11.9639
12.166
12.2801
12.3242
12.3104
12.2528
12.1728
12.0797
11.9683
11.8406
11.6957
11.5342
11.34
11.09
10.7653
10.3769
9.9469
9.42338
8.65788
1095.58
1024.91
8.30414
9.36375
9.90914
10.2094
10.397
10.5135
10.5692
10.5733
10.5398
10.4997
10.5081
10.6763
11.0563
11.5068
11.8639
12.0958
12.2279
12.2792
12.2605
12.1861
12.0895
11.9973
11.9148
11.8238
11.7165
11.5827
11.4019
11.1518
10.8336
10.4578
10.0338
9.49954
8.69467
1095.54
1024.93
8.30665
9.36589
9.91366
10.2164
10.4081
10.5268
10.5843
10.5886
10.5514
10.4959
10.4751
10.5907
10.9423
11.4107
11.816
12.0815
12.226
12.2797
12.2576
12.1689
12.0397
11.9092
11.8059
11.7273
11.6616
11.5602
11.4007
11.1741
10.8743
10.5145
10.1028
9.56733
8.73678
1095.54
1024.99
8.31871
9.37065
9.92121
10.2294
10.4243
10.5447
10.6027
10.6053
10.5614
10.493
10.4461
10.5319
10.8636
11.3524
11.7997
12.1059
12.2786
12.3444
12.3277
12.2328
12.0711
11.8843
11.724
11.6268
11.5612
11.4793
11.355
11.1589
10.8819
10.5478
10.1504
9.623
8.77924
1095.54
1025.14
8.34948
9.38976
9.93634
10.2442
10.4403
10.5617
10.6201
10.6226
10.5746
10.4951
10.4266
10.4386
10.7102
11.213
11.7212
12.0925
12.3119
12.4094
12.4136
12.3278
12.1522
11.9079
11.6744
11.5102
11.4405
11.3811
11.2732
11.1035
10.8607
10.5488
10.1789
9.67186
8.8302
1095.57
1025.18
8.34881
9.38922
9.93547
10.2452
10.445
10.5714
10.6386
10.6488
10.6083
10.5231
10.4178
10.3673
10.4296
10.8331
11.3978
11.8951
12.2344
12.4204
12.4794
12.4353
12.2819
12.0187
11.6943
11.4358
11.2829
11.2248
11.1592
11.0182
10.8049
10.5268
10.1854
9.70854
8.87851
1095.62
1025.04
8.26977
9.33182
9.88956
10.2102
10.4252
10.5743
10.6568
10.6855
10.6696
10.6062
10.5026
10.3794
10.3128
10.3248
10.657
11.2754
11.8209
12.1995
12.4105
12.4768
12.4124
12.2053
11.8637
11.4724
11.2199
11.0834
11.0133
10.9198
10.7488
10.5036
10.1935
9.75386
8.96333
1095.85
1024.64
8.1483
9.26404
9.84917
10.1843
10.4092
10.5669
10.6671
10.7227
10.7338
10.709
10.6467
10.5463
10.4122
10.3063
10.2784
10.4017
10.9416
11.5659
12.0262
12.3073
12.4201
12.3811
12.1578
11.7704
11.3285
11.0776
10.9422
10.832
10.6882
10.4785
10.205
9.80845
9.07672
1096.24
1024.35
8.07432
9.2278
9.8329
10.1785
10.4087
10.5721
10.6839
10.7521
10.7774
10.7671
10.7259
10.6622
10.5733
10.4536
10.3299
10.2937
10.4075
10.9235
11.5047
11.9618
12.2661
12.391
12.3504
12.1019
11.6778
11.2202
10.955
10.8173
10.6728
10.4759
10.2177
9.85329
9.17645
1096.67
1024.35
8.06965
9.22639
9.83341
10.181
10.4212
10.5983
10.7221
10.7958
10.8223
10.812
10.7583
10.6786
10.5878
10.5088
10.4616
10.4422
10.4775
10.8086
11.3336
11.8141
12.1716
12.389
12.4461
12.3355
12.0142
11.5498
11.1116
10.8354
10.6644
10.4741
10.2354
9.90032
9.28558
1097.16
1024.81
8.25951
9.34097
9.91159
10.2516
10.489
10.6615
10.7782
10.8426
10.8564
10.8315
10.7639
10.6668
10.5675
10.549
10.6479
10.914
11.1739
11.424
11.7381
12.062
12.3305
12.5198
12.6068
12.5491
12.3078
11.8877
11.3941
10.9882
10.7065
10.4853
10.2503
9.93036
9.352
1097.21
1025.52
8.48091
9.43409
9.9593
10.2897
10.5264
10.697
10.81
10.867
10.87
10.8296
10.732
10.5976
10.5183
10.6372
11.106
11.6339
11.9894
12.2186
12.4069
12.5718
12.7103
12.8119
12.847
12.7693
12.5405
12.1463
11.6457
11.174
10.8154
10.5352
10.2744
9.94718
9.34852
1097.09
1026.07
8.53173
9.44219
9.96295
10.2939
10.5345
10.7094
10.8279
10.8851
10.8858
10.8307
10.7281
10.5816
10.4793
10.6274
11.1485
11.7229
12.1465
12.4547
12.6762
12.8318
12.9425
13.0092
13.0153
12.9281
12.7006
12.3198
11.8314
11.342
10.9301
10.6003
10.3018
9.93474
9.27162
1096.4
1026.19
8.53325
9.40565
9.91745
10.2526
10.5075
10.7072
10.8367
10.905
10.9153
10.8713
10.7663
10.6057
10.427
10.3714
10.5588
11.1381
11.7155
12.2076
12.5488
12.7654
12.9052
12.9843
12.9953
12.9161
12.7069
12.3712
11.923
11.4396
11.0126
10.6578
10.3306
9.92104
9.17276
1095.87
1026.07
8.40662
9.31662
9.84929
10.1964
10.4578
10.661
10.8164
10.9216
10.9651
10.9626
10.9019
10.7754
10.5766
10.3467
10.2872
10.482
11.0143
11.5805
12.0565
12.4026
12.6375
12.7812
12.8326
12.7956
12.645
12.3527
11.9522
11.5202
11.0958
10.7154
10.3489
9.88059
9.03475
1095.44
1025.71
8.27731
9.21259
9.76903
10.1361
10.4169
10.6403
10.8113
10.9314
11.001
11.015
10.9838
10.9003
10.7573
10.5383
10.2858
10.2464
10.467
10.9411
11.4226
11.8144
12.1235
12.3586
12.5023
12.5372
12.4545
12.2435
11.9226
11.5212
11.1307
10.7554
10.3711
9.8718
8.98849
1095.33
1025.59
8.1967
9.14393
9.71254
10.0893
10.3796
10.6153
10.8035
10.9446
11.0365
11.0748
11.0699
11.012
10.8967
10.7173
10.4728
10.25
10.2378
10.5029
10.9617
11.3734
11.6916
11.9365
12.1168
12.2078
12.196
12.058
11.8081
11.4867
11.1216
10.7496
10.3607
9.85431
8.94576
1095.22
1025.24
8.03432
9.01838
9.61638
10.0137
10.3209
10.5741
10.7825
10.9486
11.065
11.1411
11.1673
11.1529
11.088
10.9666
10.7738
10.5001
10.2276
10.1863
10.4354
10.8821
11.2656
11.5447
11.7465
11.8709
11.9074
11.8454
11.6714
11.4035
11.0796
10.7315
10.3571
9.85661
8.94999
1095.23
1024.89
7.90591
8.91655
9.53666
9.94928
10.2682
10.5338
10.7564
10.9425
11.0773
11.1773
11.238
11.2534
11.229
11.1591
11.0395
10.8529
10.5721
10.2445
10.1192
10.3293
10.7463
11.1155
11.3871
11.5645
11.6494
11.6377
11.5214
11.3137
11.0372
10.7178
10.3575
9.86875
8.99239
1095.44
1024.68
7.79024
8.81475
9.45967
9.89276
10.228
10.5103
10.7535
10.9449
11.1078
11.2337
11.3201
11.3624
11.3634
11.3178
11.2233
11.0781
10.8711
10.5761
10.2303
10.0725
10.2604
10.6687
11.0223
11.2691
11.4133
11.4511
11.3858
11.2216
10.983
10.6919
10.353
9.88874
9.04922
1095.66
1024.56
7.72142
8.7535
9.41564
9.86255
10.2074
10.499
10.7538
10.9643
11.1445
11.2899
11.3985
11.4675
11.4912
11.4693
11.3967
11.2714
11.0907
10.8447
10.5202
10.178
10.0674
10.2976
10.6993
11.0066
11.1975
11.2821
11.2621
11.1374
10.9334
10.6694
10.3518
9.90265
9.08879
1095.82
1024.37
7.61407
8.65788
9.34612
9.81438
10.1766
10.4835
10.7542
10.9824
11.1833
11.3521
11.4852
11.5795
11.6324
11.6398
11.6
11.5107
11.3693
11.1697
10.8982
10.5438
10.1829
10.0907
10.3002
10.6987
10.9746
11.1169
11.1411
11.0688
10.8989
10.6603
10.3583
9.93607
9.1603
1096.07
1024.34
7.57192
8.61396
9.3112
9.78829
10.1589
10.4748
10.7546
11.0069
11.23
11.4236
11.5818
11.6998
11.7764
11.8046
11.7835
11.7107
11.5868
11.4123
11.1862
10.8962
10.5244
10.1592
10.1097
10.3187
10.6959
10.9371
11.0321
11.0092
10.8738
10.6612
10.3781
9.97241
9.22713
1096.45
1024.36
7.53416
8.56534
9.2769
9.76642
10.1456
10.4699
10.7625
11.0309
11.2747
11.4981
11.6913
11.8448
11.95
11.9996
11.9919
11.9311
11.8122
11.6357
11.4045
11.1192
10.7771
10.3989
10.1135
10.1231
10.3706
10.6983
10.8869
10.928
10.8562
10.6747
10.4181
10.0406
9.36143
1097.02
1024.46
7.53334
8.56061
9.26957
9.75739
10.1374
10.4664
10.7705
11.0511
11.3176
11.5609
11.7758
11.9557
12.0941
12.1822
12.207
12.1638
12.0365
11.8382
11.5755
11.2531
10.8791
10.4684
10.1269
10.0381
10.2023
10.5386
10.7721
10.8552
10.8143
10.6658
10.4299
10.071
9.40327
1097.03
1024.58
7.52424
8.53347
9.24656
9.73802
10.119
10.4469
10.75
11.0474
11.3362
11.5984
11.8335
12.0331
12.1964
12.3164
12.3799
12.3702
12.2698
12.0609
11.7472
11.3582
10.899
10.4053
10.0418
9.94836
10.122
10.4554
10.6995
10.7982
10.7692
10.6384
10.421
10.0694
9.39628
1096.74
1024.62
7.52315
8.5255
9.23499
9.72231
10.1009
10.4301
10.7389
11.0464
11.3499
11.6235
11.8682
12.0827
12.2667
12.4133
12.5082
12.5301
12.4591
12.2641
11.9363
11.4803
10.9286
10.3435
9.93641
9.9015
10.1255
10.4352
10.661
10.7491
10.7224
10.5971
10.3824
10.0179
9.26135
1096.06
1024.57
7.46897
8.47976
9.19442
9.67997
10.0538
10.3786
10.6879
11.0051
11.3219
11.6284
11.8907
12.1256
12.3328
12.5079
12.6408
12.7124
12.6946
12.5543
12.262
11.8108
11.2219
10.5623
10.0259
9.91412
10.1177
10.4076
10.6016
10.6779
10.6509
10.5292
10.3141
9.94072
9.14457
1095.63
1024.46
7.42762
8.45027
9.16578
9.64618
10.0125
10.33
10.6351
10.9557
11.283
11.6004
11.8964
12.1583
12.393
12.5973
12.7664
12.8883
12.9403
12.8889
12.6934
12.3225
11.7612
11.0633
10.3529
9.98732
10.023
10.278
10.5298
10.6354
10.6191
10.5016
10.2997
9.93849
9.14454
1095.64
1024.33
7.3761
8.41258
9.12924
9.60157
9.95575
10.261
10.5581
10.8824
11.2297
11.5787
11.9089
12.194
12.4504
12.6741
12.8664
13.0251
13.1382
13.1806
13.1205
12.9096
12.52
11.9363
11.196
10.4811
10.0492
10.0905
10.2648
10.4858
10.5575
10.4985
10.3097
9.96896
9.23231
1096.29
1024.23
7.34272
8.4038
9.10878
9.56886
9.90747
10.195
10.4743
10.7871
11.146
11.5286
11.9045
12.2282
12.5181
12.7662
12.9771
13.1561
13.3018
13.4013
13.4267
13.3502
13.1315
12.7594
12.2311
11.5469
10.7966
10.2285
10.169
10.2665
10.4296
10.4513
10.3312
10.0388
9.42403
1097.28
1024.11
7.3353
8.39517
9.10597
9.54506
9.86444
10.1329
10.3945
10.6932
11.0641
11.4857
11.9086
12.2742
12.5957
12.8654
13.0902
13.2803
13.4424
13.5744
13.6575
13.6609
13.5702
13.3504
13.0079
12.5272
11.8544
11.0256
10.3662
10.2529
10.3133
10.3831
10.3203
10.0813
9.56402
1097.74
1024.06
7.34217
8.41962
9.10769
9.53851
9.82913
10.0751
10.3178
10.5999
10.9794
11.4458
11.9143
12.3291
12.6905
12.9902
13.2351
13.4371
13.6066
13.7489
13.8542
13.901
13.8708
13.7446
13.5171
13.1614
12.6304
11.874
10.9799
10.3888
10.312
10.3349
10.2856
10.0841
9.62535
1097.78
1024.1
7.45129
8.52139
9.15731
9.54061
9.80915
10.0362
10.269
10.5574
10.956
11.4536
11.9664
12.4353
12.8287
13.149
13.4102
13.6265
13.8081
13.9595
14.0743
14.1382
14.1336
14.0592
13.8813
13.5827
13.1353
12.4835
11.5855
10.7345
10.3679
10.3317
10.2661
10.0797
9.62708
1097.62
1024.33
7.63054
8.65817
9.23103
9.56596
9.7964
9.99721
10.2195
10.5228
10.9632
11.5161
12.0971
12.5996
12.9979
13.3171
13.5804
13.8095
14.0089
14.1764
14.3047
14.382
14.3953
14.3415
14.1915
13.9243
13.5179
12.9299
12.0952
11.1026
10.5078
10.3367
10.237
10.049
9.60605
1097.37
1024.74
7.85458
8.79703
9.29082
9.57126
9.76429
9.9387
10.1516
10.4849
10.9792
11.5731
12.166
12.6725
13.069
13.3924
13.6725
13.9227
14.1477
14.3401
14.4882
14.584
14.6214
14.5915
14.4693
14.2346
13.8659
13.3307
12.5734
11.5857
10.717
10.3733
10.2155
10.0104
9.56442
1097.21
1025.26
8.05243
8.8829
9.306
9.54683
9.71086
9.8501
10.0355
10.3717
10.8911
11.5003
12.1069
12.626
13.041
13.3839
13.6795
13.9476
14.1933
14.412
14.5957
14.7259
14.7983
14.8002
14.7161
14.5192
14.1935
13.7163
13.0417
12.1226
11.1079
10.4708
10.2157
9.97699
9.51839
1097.09
1025.71
8.10486
8.89124
9.29787
9.52037
9.65998
9.75953
9.88229
10.1411
10.6037
11.1863
11.7896
12.3443
12.8103
13.1952
13.5359
13.8501
14.1394
14.3966
14.6125
14.7803
14.8938
14.9411
14.9032
14.7632
14.5032
14.0989
13.5108
12.6854
11.6584
10.761
10.2665
9.97131
9.49118
1097.03
1025.74
8.08829
8.84224
9.24483
9.47654
9.62115
9.70124
9.75273
9.87378
10.1953
10.7194
11.3194
11.9188
12.4427
12.8742
13.2575
13.6126
13.9424
14.2392
14.4955
14.7073
14.8608
14.9396
14.9377
14.8431
14.6375
14.2931
13.7714
13.025
12.0601
11.1099
10.4613
10.0127
9.43399
1096.65
1025.69
7.98581
8.75521
9.18482
9.43866
9.60226
9.69482
9.72631
9.75356
9.91017
10.2878
10.8417
11.4421
11.9972
12.4709
12.8854
13.2705
13.6343
13.9668
14.2621
14.5204
14.7192
14.8414
14.8733
14.8065
14.6213
14.2893
13.779
13.0777
12.2121
11.3318
10.6398
10.0617
9.30845
1096.06
1025.57
7.90088
8.68935
9.13272
9.39648
9.57153
9.67979
9.72392
9.72713
9.74247
9.93484
10.3801
10.9564
11.5494
12.0652
12.5066
12.9133
13.2996
13.6573
13.9836
14.2767
14.5038
14.6431
14.6873
14.6364
14.4683
14.1631
13.6953
13.0494
12.274
11.4918
10.7997
10.1133
9.18121
1095.62
1025.4
7.76617
8.58122
9.05121
9.33921
9.53691
9.66581
9.7297
9.73615
9.72891
9.73979
9.86456
10.2953
10.9114
11.4958
11.9887
12.433
12.8449
13.2263
13.5915
13.9256
14.1889
14.3589
14.4266
14.3965
14.2452
13.9582
13.5253
12.9534
12.2853
11.5941
10.917
10.1509
9.07831
1095.33
1024.88
7.56582
8.44568
8.95367
9.26612
9.48634
9.64493
9.74825
9.78788
9.77742
9.74713
9.74045
9.82144
10.1496
10.7388
11.3043
11.8044
12.2591
12.6871
13.1083
13.4939
13.7946
13.9968
14.0969
14.0997
13.9837
13.7372
13.3593
12.866
12.2911
11.6756
11.0246
10.2311
9.09113
1095.32
1024.32
7.37797
8.3045
8.85005
9.18854
9.42896
9.609
9.73843
9.81751
9.85105
9.83851
9.79702
9.78521
9.87964
10.1332
10.6171
11.1233
11.5902
12.0425
12.5057
12.9542
13.3292
13.5899
13.7359
13.7744
13.7027
13.5101
13.195
12.7733
12.2749
11.7205
11.1011
10.3131
9.12934
1095.44
1024.12
7.33881
8.27162
8.83031
9.18552
9.42986
9.61015
9.7389
9.82102
9.87147
9.88985
9.88331
9.87206
9.91144
10.1056
10.4715
10.9084
11.3018
11.6638
12.0385
12.4323
12.8153
13.1391
13.3601
13.4499
13.4124
13.2566
12.9955
12.6401
12.2084
11.7154
11.1466
10.3928
9.22383
1095.67
1024.13
7.3339
8.26508
8.82477
9.17407
9.42344
9.61007
9.75016
9.84771
9.90187
9.92042
9.92843
9.97229
10.0913
10.2993
10.622
11.0025
11.3483
11.6469
11.9129
12.168
12.4223
12.6777
12.9133
13.0822
13.1334
13.049
12.8338
12.5228
12.1401
11.6928
11.1679
10.4606
9.32549
1095.93
1024.3
7.37976
8.27454
8.82646
9.18401
9.44293
9.63824
9.785
9.88357
9.9377
9.95762
9.97634
10.0752
10.3369
10.7268
11.0695
11.3819
11.6535
11.8759
12.0621
12.2239
12.3734
12.4878
12.5858
12.688
12.7597
12.7524
12.6331
12.392
12.0536
11.6479
11.172
10.5302
9.46483
1096.27
1024.53
7.43277
8.29671
8.83796
9.19496
9.45788
9.65931
9.80768
9.90759
9.95937
9.97149
9.98191
10.0929
10.422
10.9421
11.4188
11.7669
12.0359
12.24
12.386
12.481
12.5284
12.5532
12.5711
12.5551
12.5223
12.4674
12.3757
12.2056
11.9435
11.5999
11.1793
10.5982
9.60696
1096.62
1024.59
7.4338
8.2725
8.80618
9.16788
9.44427
9.66356
9.82605
9.93854
9.99748
10.0038
9.99048
10.04
10.3191
10.8946
11.468
11.9142
12.2541
12.5058
12.6765
12.7793
12.8171
12.7928
12.7058
12.6002
12.5064
12.3829
12.2337
12.0445
11.8121
11.525
11.1665
10.6578
9.75027
1096.92
1024.53
7.35046
8.20286
8.74607
9.11605
9.40359
9.6383
9.82824
9.96063
10.0423
10.0617
10.0301
9.9975
10.0437
10.3371
10.9927
11.6511
12.1742
12.5417
12.8003
12.9694
13.0609
13.0682
12.9874
12.8305
12.6172
12.4083
12.2213
12.0101
11.753
11.454
11.125
10.675
9.84492
1097.12
1024.28
7.24359
8.11857
8.6815
9.06598
9.36611
9.61435
9.81939
9.9796
10.0989
10.1628
10.1675
10.1038
10.031
10.0513
10.3012
10.9608
11.7143
12.3078
12.6963
12.9477
13.1062
13.195
13.1957
13.0864
12.8757
12.601
12.3059
12.027
11.7491
11.4472
11.121
10.6968
9.91594
1097.26
1024.13
7.15301
8.03148
8.60862
9.00883
9.32607
9.59403
9.82257
10.0001
10.1432
10.2457
10.292
10.2761
10.1865
10.0708
10.0706
10.3339
10.993
11.7224
12.3031
12.7112
12.9977
13.1723
13.2398
13.2194
13.083
12.8253
12.4885
12.1314
11.7832
11.4529
11.1236
10.7169
9.97972
1097.47
1024.12
7.12268
8.00051
8.58373
8.99005
9.31391
9.5914
9.83487
10.0441
10.213
10.3413
10.423
10.44
10.3875
10.2671
10.1373
10.1633
10.5354
11.1732
11.8105
12.331
12.7195
13.0025
13.1828
13.2286
13.1736
12.9998
12.6927
12.3013
11.892
11.5047
11.1475
10.7324
9.99592
1097.49
1024.09
7.05573
7.93635
8.53011
8.94483
9.27634
9.56323
9.82065
10.0577
10.2697
10.4467
10.574
10.6285
10.6008
10.493
10.3249
10.1862
10.2738
10.7234
11.3335
11.9046
12.3774
12.7432
13.0081
13.1616
13.1677
13.0197
12.7602
12.4004
11.982
11.5736
11.1879
10.7449
9.98071
1097.34
1024.06
7.01047
7.89927
8.4985
8.91504
9.24767
9.5367
9.79843
10.0448
10.2873
10.5213
10.729
10.8501
10.8587
10.7729
10.5986
10.3866
10.2775
10.4699
10.9641
11.5188
12.0166
12.4435
12.7746
12.9909
13.0697
12.9972
12.7576
12.4222
12.0359
11.6326
11.2297
10.7433
9.9229
1097.06
1023.98
6.94209
7.84551
8.45339
8.87194
9.2043
9.49393
9.758
10.0088
10.261
10.5324
10.8059
11.0459
11.1669
11.128
10.9488
10.6885
10.4495
10.4318
10.7481
11.2399
11.72
12.1386
12.4851
12.7471
12.8816
12.8701
12.7085
12.4149
12.0476
11.6582
11.2383
10.7154
9.81721
1096.74
1023.83
6.86823
7.79497
8.41094
8.82885
9.15856
9.44574
9.70731
9.95504
10.2044
10.4815
10.8192
11.1591
11.424
11.5289
11.4382
11.1498
10.7989
10.5438
10.6134
10.9847
11.4487
11.8703
12.2247
12.4966
12.6672
12.7097
12.6051
12.3689
12.0423
11.6622
11.2486
10.7114
9.77444
1096.65
1023.68
6.8104
7.75858
8.38072
8.79866
9.12643
9.41153
9.67065
9.91473
10.1574
10.4248
10.7585
11.1758
11.58
11.848
11.9374
11.8113
11.448
10.962
10.6729
10.7824
11.1583
11.6026
11.9693
12.2457
12.4271
12.499
12.4525
12.28
12.0046
11.6587
11.2566
10.716
9.78555
1096.69
1023.58
6.79469
7.75115
8.36697
8.77843
9.10216
9.38395
9.63923
9.87962
10.1165
10.3744
10.6928
11.1289
11.6335
12.0707
12.3377
12.4007
12.2425
11.8441
11.2892
10.8653
10.9293
11.2419
11.676
12.0316
12.2552
12.345
12.3172
12.1756
11.9473
11.6474
11.2698
10.7429
9.81265
1096.92
1023.54
6.78603
7.74935
8.36375
8.77126
9.09518
9.37577
9.6278
9.85521
10.0835
10.3281
10.6156
10.9931
11.5239
12.0943
12.5259
12.7835
12.8495
12.7286
12.404
11.8773
11.2825
11.2038
11.3637
11.6843
11.9939
12.1877
12.2297
12.1476
11.9446
11.6643
11.3147
10.8095
9.90368
1097.4
1023.58
6.84734
7.78651
8.37057
8.7669
9.08519
9.36889
9.6204
9.84783
10.0759
10.3263
10.6142
10.9712
11.433
12.0149
12.5709
12.9926
13.256
13.3555
13.2956
13.0288
12.5296
11.8403
11.4588
11.5696
11.7709
11.9595
12.0701
12.0633
11.9388
11.702
11.374
10.895
10.0609
1098.27
1023.74
6.92013
7.82001
8.38337
8.76922
9.08786
9.36964
9.61923
9.84914
10.076
10.3151
10.6046
10.9617
11.4095
11.97
12.5571
13.0498
13.4154
13.6555
13.7716
13.7463
13.5327
13.0828
12.4801
11.9219
11.8241
11.955
12.0555
12.0544
11.9508
11.7524
11.4635
11.0307
10.2632
1098.85
1024.09
7.06929
7.89051
8.40694
8.79191
9.11579
9.39739
9.64128
9.86
10.0871
10.3466
10.6757
11.0763
11.5253
12.039
12.6129
13.1317
13.5268
13.8295
14.0287
14.1064
14.043
13.7571
13.2172
12.5719
12.1767
12.0674
12.0965
12.0784
11.97
11.7729
11.491
11.0463
10.2654
1098.84
1024.52
7.17549
7.90249
8.41069
8.79736
9.13522
9.42831
9.67294
9.88081
10.0924
10.3677
10.7229
11.162
11.6565
12.1622
12.6861
13.1995
13.6328
13.9531
14.1554
14.2366
14.1725
13.9088
13.4301
12.8489
12.4723
12.3283
12.2734
12.1885
12.0344
11.8005
11.4917
11.0322
10.2015
1098.09
1024.77
7.19261
7.89642
8.38387
8.78115
9.14248
9.45126
9.69665
9.89078
10.0783
10.3275
10.6966
11.1729
11.6892
12.1885
12.6819
13.1986
13.6545
13.9583
14.1344
14.1808
14.0881
13.8134
13.3873
12.9598
12.6814
12.5291
12.4183
12.284
12.0911
11.8194
11.4661
10.9296
9.95742
1097.12
1024.81
7.16076
7.82765
8.32071
8.73891
9.12904
9.46671
9.72244
9.90494
10.0603
10.2527
10.5902
11.0581
11.587
12.1065
12.6145
13.1381
13.5786
13.8544
13.9837
13.9986
13.8875
13.6389
13.3124
13.0124
12.7863
12.6423
12.4966
12.3223
12.0959
11.8047
11.4048
10.7931
9.6743
1096.24
1024.72
7.06372
7.73277
8.22805
8.67147
9.10494
9.48242
9.75948
9.93839
10.0649
10.202
10.4058
10.7924
11.2793
11.7798
12.2746
12.773
13.1755