/*--------------------------------*- C++ -*----------------------------------*\
| =========                 |                                                 |
| \\      /  F ield         | OpenFOAM: The Open Source CFD Toolbox           |
|  \\    /   O peration     | Version:  2.0.x                                 |
|   \\  /    A nd           | Web:      www.OpenFOAM.org                      |
|    \\/     M anipulation  |                                                 |
\*---------------------------------------------------------------------------*/
FoamFile
{
    version     2.0;
    format      ascii;
    class       surfaceScalarField;
    location    "400";
    object      phi;
}
// * * * * * * * * * * * * * * * * * * * * * * * * * * * * * * * * * * * * * //

dimensions      [1 0 -1 0 0 0 0];

internalField   nonuniform List<scalar> 
228225
(
-3.51972e-06
1.92211e-06
1.29791e-06
-7.93763e-06
2.09641e-06
2.32143e-06
-1.13637e-05
8.8184e-07
2.54412e-06
-1.30782e-05
-8.262e-07
2.54061e-06
-1.31535e-05
-2.37912e-06
2.45428e-06
-1.1504e-05
-4.02395e-06
2.37426e-06
-8.18543e-06
-5.63265e-06
2.3139e-06
-3.80642e-06
-6.67735e-06
2.29811e-06
1.22171e-06
-7.28921e-06
2.26081e-06
6.58588e-06
-7.59637e-06
2.23189e-06
1.2066e-05
-7.69102e-06
2.21053e-06
1.74459e-05
-7.57644e-06
2.19614e-06
2.28053e-05
-7.46857e-06
2.10878e-06
2.79988e-05
-7.24083e-06
2.04698e-06
3.28655e-05
-6.88547e-06
2.01847e-06
3.74346e-05
-6.53892e-06
1.96956e-06
4.15894e-05
-6.1259e-06
1.9708e-06
4.52431e-05
-5.62384e-06
1.96981e-06
4.82916e-05
-5.0188e-06
1.97011e-06
5.07158e-05
-4.39082e-06
1.96631e-06
5.25673e-05
-3.81298e-06
1.96113e-06
5.35714e-05
-2.97454e-06
1.97017e-06
5.39857e-05
-2.37584e-06
1.96127e-06
5.36593e-05
-1.63242e-06
1.95852e-06
5.25991e-05
-9.00334e-07
1.96015e-06
5.08292e-05
-1.92032e-07
1.96163e-06
4.81468e-05
7.00086e-07
1.9819e-06
4.46857e-05
1.45463e-06
2.00602e-06
4.05233e-05
2.13182e-06
2.03016e-06
3.55439e-05
2.91617e-06
2.06267e-06
2.97015e-05
3.68145e-06
2.16032e-06
2.30273e-05
4.44663e-06
2.22677e-06
1.54602e-05
5.23452e-06
2.33125e-06
7.13154e-06
6.02342e-06
2.30351e-06
5.71033e-06
1.4212e-06
5.70428e-07
4.77777e-07
8.73794e-07
1.44403e-06
-4.64713e-07
1.68739e-06
3.08329e-06
-2.66802e-06
1.91045e-06
5.66211e-06
-5.30848e-06
1.9033e-06
9.10608e-06
-7.62708e-06
1.8038e-06
1.30247e-05
-9.64772e-06
1.70493e-06
1.68294e-05
-1.09862e-05
1.54869e-06
2.053e-05
-1.17193e-05
1.34113e-06
2.41154e-05
-1.20851e-05
1.2103e-06
2.75517e-05
-1.21618e-05
1.12894e-06
3.0825e-05
-1.20434e-05
1.07886e-06
3.38933e-05
-1.16973e-05
1.05224e-06
3.6655e-05
-1.12978e-05
1.06724e-06
3.91076e-05
-1.08031e-05
1.10941e-06
4.12665e-05
-1.0187e-05
1.14214e-06
4.28461e-05
-9.30339e-06
1.18447e-06
4.39467e-05
-8.41471e-06
1.18779e-06
4.47127e-05
-7.58e-06
1.18974e-06
4.52499e-05
-6.75547e-06
1.19898e-06
4.55015e-05
-5.85497e-06
1.21207e-06
4.53961e-05
-4.9272e-06
1.2192e-06
4.51399e-05
-3.94769e-06
1.22901e-06
4.44478e-05
-2.9268e-06
1.24264e-06
4.34461e-05
-1.89161e-06
1.26046e-06
4.2053e-05
-7.97958e-07
1.2904e-06
3.99764e-05
5.62868e-07
1.3214e-06
3.76033e-05
1.7094e-06
1.36358e-06
3.47277e-05
2.90211e-06
1.42794e-06
3.13238e-05
4.04383e-06
1.4918e-06
2.72689e-05
5.39485e-06
1.57619e-06
2.24962e-05
6.75864e-06
1.69541e-06
1.6971e-05
8.12473e-06
1.84704e-06
1.07199e-05
9.48031e-06
2.00514e-06
4.33842e-06
1.04353e-05
1.96946e-06
8.84246e-06
1.20626e-06
6.39787e-07
-7.81765e-07
6.19405e-07
3.10336e-06
-4.04354e-06
1.11487e-06
6.94684e-06
-7.71871e-06
1.20685e-06
1.12643e-05
-1.0712e-05
1.08569e-06
1.54063e-05
-1.27123e-05
9.42874e-07
1.87987e-05
-1.38613e-05
8.20948e-07
2.1257e-05
-1.42556e-05
8.10765e-07
2.30753e-05
-1.43584e-05
8.20526e-07
2.44383e-05
-1.42954e-05
8.46871e-07
2.54721e-05
-1.40733e-05
8.77305e-07
2.62504e-05
-1.37252e-05
9.03028e-07
2.69001e-05
-1.32676e-05
9.2018e-07
2.73669e-05
-1.26965e-05
9.31523e-07
2.76666e-05
-1.20354e-05
9.32198e-07
2.78397e-05
-1.12935e-05
9.32994e-07
2.8043e-05
-1.04481e-05
9.40805e-07
2.81676e-05
-9.49713e-06
9.57316e-07
2.81325e-05
-8.51176e-06
9.66423e-07
2.79589e-05
-7.54181e-06
9.59437e-07
2.76916e-05
-6.54429e-06
9.56178e-07
2.73038e-05
-5.49808e-06
9.5815e-07
2.6803e-05
-4.41117e-06
9.63716e-07
2.61894e-05
-3.28474e-06
9.70838e-07
2.54278e-05
-2.1097e-06
9.78966e-07
2.43229e-05
-6.9159e-07
9.97773e-07
2.30804e-05
7.81252e-07
1.02357e-06
2.18823e-05
1.85281e-06
1.05396e-06
2.03492e-05
3.33335e-06
1.10101e-06
1.8302e-05
4.91259e-06
1.17739e-06
1.58215e-05
6.61072e-06
1.26349e-06
1.28149e-05
8.4102e-06
1.35401e-06
9.23343e-06
1.02354e-05
1.46973e-06
5.30745e-06
1.18327e-05
1.57249e-06
1.72143e-06
1.25213e-05
1.49872e-06
9.73176e-06
8.32121e-07
9.20553e-07
-2.11912e-06
4.16346e-07
3.38404e-06
-7.14548e-06
6.38014e-07
6.23661e-06
-1.11748e-05
6.03152e-07
8.63069e-06
-1.36476e-05
5.41225e-07
1.02776e-05
-1.48825e-05
5.22972e-07
1.12943e-05
-1.54335e-05
5.55308e-07
1.2126e-05
-1.56685e-05
5.80895e-07
1.28368e-05
-1.56958e-05
6.26452e-07
1.34545e-05
-1.55614e-05
6.48076e-07
1.40217e-05
-1.5285e-05
6.4428e-07
1.45393e-05
-1.48841e-05
6.41e-07
1.50034e-05
-1.43758e-05
6.43828e-07
1.54293e-05
-1.37733e-05
6.50567e-07
1.58194e-05
-1.30844e-05
6.58575e-07
1.61743e-05
-1.23164e-05
6.67654e-07
1.6517e-05
-1.14699e-05
6.78705e-07
1.68574e-05
-1.05326e-05
6.94736e-07
1.71208e-05
-9.49509e-06
7.19482e-07
1.71934e-05
-8.36842e-06
7.53562e-07
1.70639e-05
-7.19922e-06
7.83977e-07
1.67408e-05
-5.98631e-06
8.10877e-07
1.62437e-05
-4.74652e-06
8.31969e-07
1.562e-05
-3.50954e-06
8.48009e-07
1.48842e-05
-2.24785e-06
8.73512e-07
1.40466e-05
-7.60479e-07
9.06142e-07
1.33428e-05
5.46214e-07
9.38546e-07
1.25607e-05
1.65682e-06
9.77725e-07
1.16154e-05
3.24913e-06
1.02921e-06
1.04105e-05
5.03059e-06
1.08668e-06
8.91271e-06
6.95444e-06
1.15379e-06
7.03604e-06
9.05135e-06
1.2353e-06
4.77197e-06
1.11787e-05
1.32062e-06
2.41123e-06
1.28192e-05
1.37401e-06
4.40452e-07
1.32394e-05
1.25233e-06
9.56827e-06
6.03924e-07
9.36972e-07
-3.34927e-06
2.92747e-07
2.66974e-06
-9.30342e-06
4.24821e-07
4.25495e-06
-1.31771e-05
4.16782e-07
5.44997e-06
-1.52531e-05
4.10267e-07
6.40673e-06
-1.62691e-05
4.29646e-07
7.25503e-06
-1.67264e-05
4.44371e-07
7.99022e-06
-1.68707e-05
4.66851e-07
8.62663e-06
-1.68205e-05
4.88099e-07
9.15932e-06
-1.66082e-05
5.13775e-07
9.58879e-06
-1.62605e-05
5.45738e-07
9.93363e-06
-1.57959e-05
5.66536e-07
1.02067e-05
-1.52278e-05
5.7863e-07
1.04089e-05
-1.45644e-05
5.88399e-07
1.05369e-05
-1.38123e-05
5.994e-07
1.05872e-05
-1.29773e-05
6.10192e-07
1.05598e-05
-1.20626e-05
6.19705e-07
1.04754e-05
-1.1076e-05
6.27255e-07
1.03703e-05
-1.00236e-05
6.33154e-07
1.02723e-05
-8.90968e-06
6.38746e-07
1.0157e-05
-7.73107e-06
6.46664e-07
1.00009e-05
-6.48974e-06
6.59043e-07
9.77695e-06
-5.20144e-06
6.78371e-07
9.47996e-06
-3.91287e-06
6.99807e-07
9.14546e-06
-2.6372e-06
7.23314e-07
8.97194e-06
-1.33794e-06
7.50466e-07
8.61922e-06
1.16011e-07
7.82448e-07
8.20924e-06
1.24053e-06
8.25707e-07
7.71889e-06
2.85196e-06
8.86904e-07
6.99327e-06
4.79326e-06
9.62375e-07
5.95703e-06
6.94494e-06
1.04518e-06
4.64961e-06
9.23493e-06
1.1233e-06
3.04135e-06
1.15964e-05
1.19009e-06
1.41783e-06
1.32314e-05
1.21073e-06
1.48308e-07
1.34438e-05
1.06446e-06
9.21727e-06
4.99299e-07
5.50462e-07
-4.10796e-06
2.07644e-07
1.40797e-06
-1.04225e-05
2.61198e-07
2.17387e-06
-1.41651e-05
2.21822e-07
2.76355e-06
-1.60497e-05
2.06615e-07
3.19307e-06
-1.69334e-05
2.34548e-07
3.53453e-06
-1.73383e-05
2.70201e-07
3.82364e-06
-1.74724e-05
3.1234e-07
4.06878e-06
-1.74179e-05
3.52015e-07
4.28039e-06
-1.72068e-05
3.86776e-07
4.46698e-06
-1.68641e-05
4.16729e-07
4.63159e-06
-1.64055e-05
4.44765e-07
4.77258e-06
-1.58424e-05
4.73372e-07
4.89201e-06
-1.51839e-05
4.99833e-07
4.99275e-06
-1.44373e-05
5.2392e-07
5.07755e-06
-1.36086e-05
5.46208e-07
5.15059e-06
-1.27032e-05
5.67292e-07
5.21088e-06
-1.17242e-05
5.87555e-07
5.25417e-06
-1.06742e-05
6.06892e-07
5.27751e-06
-9.55772e-06
6.2431e-07
5.28883e-06
-8.38211e-06
6.39319e-07
5.30183e-06
-7.15553e-06
6.52401e-07
5.32562e-06
-5.89047e-06
6.64848e-07
5.34566e-06
-4.61186e-06
6.78576e-07
5.36822e-06
-3.355e-06
6.94888e-07
5.44209e-06
-2.12679e-06
7.1468e-07
5.56718e-06
-7.47183e-07
7.37856e-07
5.42324e-06
6.14865e-07
7.69376e-07
5.33346e-06
2.12753e-06
8.14014e-07
5.09929e-06
4.16038e-06
8.6687e-07
4.55941e-06
6.55316e-06
9.31496e-07
3.60744e-06
9.18702e-06
9.99713e-07
2.36035e-06
1.17826e-05
1.06075e-06
1.08899e-06
1.34304e-05
1.07219e-06
1.16973e-07
1.34984e-05
9.17112e-07
8.92349e-06
4.10741e-07
3.52653e-07
-4.59576e-06
1.34788e-07
8.74342e-07
-1.10939e-05
1.49428e-07
1.37509e-06
-1.47889e-05
1.22859e-07
1.81898e-06
-1.66228e-05
1.29e-07
2.20244e-06
-1.74861e-05
1.69033e-07
2.53467e-06
-1.78842e-05
2.1348e-07
2.82308e-06
-1.80148e-05
2.53777e-07
3.06856e-06
-1.79582e-05
2.9461e-07
3.27766e-06
-1.77495e-05
3.33343e-07
3.45932e-06
-1.74128e-05
3.66753e-07
3.62225e-06
-1.69633e-05
3.94613e-07
3.77046e-06
-1.64121e-05
4.21082e-07
3.90686e-06
-1.5768e-05
4.47369e-07
4.03465e-06
-1.50381e-05
4.72704e-07
4.15719e-06
-1.42281e-05
4.96507e-07
4.27813e-06
-1.33432e-05
5.18632e-07
4.40199e-06
-1.23879e-05
5.3938e-07
4.53249e-06
-1.13644e-05
5.59314e-07
4.66831e-06
-1.02729e-05
5.78948e-07
4.80097e-06
-9.11349e-06
5.98315e-07
4.91942e-06
-7.89164e-06
6.17262e-07
5.01413e-06
-6.62135e-06
6.35813e-07
5.07966e-06
-5.33127e-06
6.53546e-07
5.12525e-06
-4.07213e-06
6.7123e-07
5.18943e-06
-2.88155e-06
6.90294e-07
5.28555e-06
-1.55648e-06
7.12907e-07
5.1664e-06
-5.13269e-09
7.38914e-07
5.11685e-06
1.40215e-06
7.74696e-07
4.93167e-06
3.52209e-06
8.23236e-07
4.4473e-06
6.15623e-06
8.81087e-07
3.56923e-06
9.12658e-06
9.38332e-07
2.40314e-06
1.19663e-05
9.82256e-07
1.21391e-06
1.36416e-05
9.77817e-07
2.78674e-07
1.36175e-05
8.15821e-07
8.85116e-06
3.51004e-07
1.42604e-07
-4.82376e-06
8.50991e-08
3.81574e-07
-1.13867e-05
5.35783e-08
6.67704e-07
-1.5068e-05
-7.21634e-09
9.70553e-07
-1.69061e-05
-1.96703e-08
1.24747e-06
-1.77867e-05
2.35968e-08
1.48057e-06
-1.82033e-05
8.58855e-08
1.6694e-06
-1.83533e-05
1.49547e-07
1.82972e-06
-1.83167e-05
1.97977e-07
1.97277e-06
-1.81316e-05
2.389e-07
2.10065e-06
-1.78195e-05
2.78583e-07
2.21585e-06
-1.73967e-05
3.17966e-07
2.32495e-06
-1.68751e-05
3.53684e-07
2.43085e-06
-1.62627e-05
3.88457e-07
2.53644e-06
-1.55655e-05
4.21607e-07
2.64466e-06
-1.47892e-05
4.52645e-07
2.75868e-06
-1.39386e-05
4.81103e-07
2.88126e-06
-1.30183e-05
5.07581e-07
3.0159e-06
-1.20318e-05
5.32537e-07
3.16756e-06
-1.09809e-05
5.56151e-07
3.3403e-06
-9.86486e-06
5.78425e-07
3.53185e-06
-8.68314e-06
5.99775e-07
3.73123e-06
-7.44082e-06
6.19945e-07
3.91821e-06
-6.15645e-06
6.38103e-07
4.06273e-06
-4.87032e-06
6.53636e-07
4.14019e-06
-3.62666e-06
6.67662e-07
4.23948e-06
-2.33809e-06
6.82389e-07
4.35483e-06
-8.18434e-07
6.9808e-07
4.20323e-06
8.32852e-07
7.21072e-07
4.12259e-06
2.84856e-06
7.54362e-07
3.79063e-06
5.68821e-06
8.00175e-07
3.09571e-06
8.9647e-06
8.56941e-07
2.10563e-06
1.20705e-05
8.85863e-07
1.06903e-06
1.38093e-05
8.69004e-07
2.51042e-07
1.37236e-05
7.12033e-07
8.7936e-06
3.08612e-07
4.50355e-08
-4.91262e-06
4.38114e-08
2.24475e-07
-1.15522e-05
-1.3889e-08
5.32208e-07
-1.52988e-05
-7.69865e-08
9.01586e-07
-1.7181e-05
-9.44557e-08
1.27107e-06
-1.80868e-05
-6.94897e-08
1.61044e-06
-1.85236e-05
-1.919e-08
1.9121e-06
-1.86945e-05
3.94302e-08
2.1772e-06
-1.86793e-05
9.73769e-08
2.41655e-06
-1.85207e-05
1.49591e-07
2.62991e-06
-1.82334e-05
2.00478e-07
2.82113e-06
-1.7836e-05
2.47904e-07
2.99253e-06
-1.73393e-05
2.92694e-07
3.14816e-06
-1.67519e-05
3.33426e-07
3.29124e-06
-1.60804e-05
3.71534e-07
3.42506e-06
-1.5331e-05
4.07749e-07
3.55363e-06
-1.45089e-05
4.41463e-07
3.67963e-06
-1.36178e-05
4.73314e-07
3.80473e-06
-1.2661e-05
5.03786e-07
3.93022e-06
-1.164e-05
5.33358e-07
4.05754e-06
-1.05549e-05
5.6244e-07
4.1887e-06
-9.40582e-06
5.91319e-07
4.32109e-06
-8.19364e-06
6.20262e-07
4.43868e-06
-6.92246e-06
6.48307e-07
4.51263e-06
-5.61731e-06
6.7299e-07
4.52359e-06
-4.33063e-06
6.93043e-07
4.55889e-06
-3.08307e-06
7.09795e-07
4.59851e-06
-1.58209e-06
7.24232e-07
4.35585e-06
3.41064e-07
7.34712e-07
4.22852e-06
2.22699e-06
7.49231e-07
3.90966e-06
5.23704e-06
7.70338e-07
3.2425e-06
8.83021e-06
8.01902e-07
2.30598e-06
1.21821e-05
8.25215e-07
1.27167e-06
1.40403e-05
8.03581e-07
3.99677e-07
1.39415e-05
6.54469e-07
8.90092e-06
2.92379e-07
7.05888e-08
-4.98806e-06
5.05278e-09
3.23909e-07
-1.17186e-05
-8.68175e-08
7.55102e-07
-1.5562e-05
-1.67847e-07
1.27454e-06
-1.75053e-05
-1.95086e-07
1.79584e-06
-1.84363e-05
-1.71779e-07
2.27412e-06
-1.88824e-05
-1.19418e-07
2.69653e-06
-1.90597e-05
-5.71979e-08
3.0619e-06
-1.90516e-05
6.98994e-09
3.38009e-06
-1.89088e-05
6.98991e-08
3.65678e-06
-1.86351e-05
1.24962e-07
3.89641e-06
-1.82498e-05
1.74158e-07
4.10313e-06
-1.77648e-05
2.18757e-07
4.28035e-06
-1.71891e-05
2.5999e-07
4.43155e-06
-1.65302e-05
2.98609e-07
4.56209e-06
-1.5796e-05
3.34421e-07
4.67361e-06
-1.49902e-05
3.69778e-07
4.76649e-06
-1.41148e-05
4.04037e-07
4.84132e-06
-1.31728e-05
4.36991e-07
4.89998e-06
-1.21677e-05
4.6908e-07
4.94545e-06
-1.11014e-05
5.01093e-07
4.97833e-06
-9.97187e-06
5.33246e-07
4.99368e-06
-8.77554e-06
5.66675e-07
4.98369e-06
-7.51447e-06
6.02174e-07
4.93944e-06
-6.2107e-06
6.37858e-07
4.85992e-06
-4.92029e-06
6.69466e-07
4.75513e-06
-3.67531e-06
6.97428e-07
4.61653e-06
-2.16599e-06
7.2302e-07
4.41027e-06
-1.92389e-07
7.40361e-07
4.19373e-06
1.69372e-06
7.50561e-07
3.87729e-06
4.80012e-06
7.54148e-07
3.32513e-06
8.6211e-06
7.61893e-07
2.43892e-06
1.22984e-05
7.70248e-07
1.38667e-06
1.43462e-05
7.46871e-07
4.60321e-07
1.42597e-05
6.08882e-07
9.08365e-06
2.77627e-07
5.63677e-08
-5.02106e-06
-2.28816e-08
4.16679e-07
-1.19472e-05
-1.31426e-07
1.03149e-06
-1.5963e-05
-2.13552e-07
1.77702e-06
-1.80002e-05
-2.50512e-07
2.5484e-06
-1.89621e-05
-2.45416e-07
3.28744e-06
-1.94092e-05
-2.1211e-07
3.96641e-06
-1.95744e-05
-1.64142e-07
4.57935e-06
-1.95556e-05
-1.08897e-07
5.12295e-06
-1.94012e-05
-5.1104e-08
5.60139e-06
-1.91198e-05
6.40488e-09
6.01825e-06
-1.87283e-05
6.17005e-08
6.37736e-06
-1.82373e-05
1.13491e-07
6.68118e-06
-1.76547e-05
1.61874e-07
6.93485e-06
-1.69907e-05
2.06959e-07
7.15203e-06
-1.62615e-05
2.48483e-07
7.32498e-06
-1.5449e-05
2.85989e-07
7.44331e-06
-1.45538e-05
3.20815e-07
7.50232e-06
-1.35859e-05
3.54275e-07
7.50213e-06
-1.25548e-05
3.87441e-07
7.44605e-06
-1.14664e-05
4.21332e-07
7.33692e-06
-1.032e-05
4.57529e-07
7.17733e-06
-9.11337e-06
4.97729e-07
6.97274e-06
-7.85129e-06
5.41763e-07
6.72562e-06
-6.55139e-06
5.88213e-07
6.43756e-06
-5.26189e-06
6.30125e-07
6.09551e-06
-4.00842e-06
6.75744e-07
5.71662e-06
-2.505e-06
7.18571e-07
5.31529e-06
-5.47572e-07
7.57264e-07
4.92716e-06
1.3057e-06
7.7703e-07
4.46301e-06
4.48587e-06
7.79345e-07
3.75565e-06
8.56354e-06
7.6574e-07
2.75248e-06
1.25639e-05
7.38249e-07
1.60263e-06
1.48001e-05
6.96582e-07
5.72602e-07
1.47279e-05
5.62793e-07
9.39396e-06
2.62314e-07
2.55646e-07
-5.21443e-06
-6.15538e-08
9.08678e-07
-1.24123e-05
-1.87416e-07
1.8172e-06
-1.66033e-05
-2.67893e-07
2.83488e-06
-1.87088e-05
-3.08775e-07
3.86571e-06
-1.968e-05
-3.12665e-07
4.85869e-06
-2.01107e-05
-2.91313e-07
5.78267e-06
-2.02436e-05
-2.54504e-07
6.63037e-06
-2.01945e-05
-2.08509e-07
7.38516e-06
-1.99973e-05
-1.58465e-07
8.04447e-06
-1.96721e-05
-1.06732e-07
8.60952e-06
-1.92374e-05
-5.56248e-08
9.08429e-06
-1.87051e-05
-6.65928e-09
9.47416e-06
-1.80837e-05
3.94451e-08
9.77789e-06
-1.73759e-05
8.1817e-08
9.97151e-06
-1.65733e-05
1.18499e-07
1.00533e-05
-1.56826e-05
1.52131e-07
1.0035e-05
-1.47208e-05
1.85811e-07
9.92789e-06
-1.36985e-05
2.20103e-07
9.74197e-06
-1.26229e-05
2.54432e-07
9.48635e-06
-1.14994e-05
2.89123e-07
9.17227e-06
-1.03304e-05
3.24986e-07
8.81118e-06
-9.11524e-06
3.63449e-07
8.41041e-06
-7.85569e-06
4.05686e-07
7.9736e-06
-6.56715e-06
4.53146e-07
7.49244e-06
-5.28936e-06
5.09267e-07
6.95347e-06
-4.02734e-06
5.58595e-07
6.37801e-06
-2.54339e-06
6.14608e-07
5.77439e-06
-6.1954e-07
6.76425e-07
5.14871e-06
1.21532e-06
7.1698e-07
4.4948e-06
4.39735e-06
7.43229e-07
3.6456e-06
8.68544e-06
7.27919e-07
2.57964e-06
1.29375e-05
6.92908e-07
1.43736e-06
1.52985e-05
6.4444e-07
4.51299e-07
1.51979e-05
5.16862e-07
9.61036e-06
2.34931e-07
2.96696e-07
-5.4308e-06
-7.94162e-08
1.10616e-06
-1.30263e-05
-1.9484e-07
2.1695e-06
-1.7406e-05
-2.60189e-07
3.32658e-06
-1.95579e-05
-3.07547e-07
4.4974e-06
-2.05199e-05
-3.30528e-07
5.64128e-06
-2.09204e-05
-3.33852e-07
6.72592e-06
-2.10083e-05
-3.19644e-07
7.73685e-06
-2.09134e-05
-2.91719e-07
8.6493e-06
-2.06534e-05
-2.55936e-07
9.44769e-06
-2.02556e-05
-2.14517e-07
1.01204e-05
-1.974e-05
-1.6973e-07
1.06614e-05
-1.91225e-05
-1.23077e-07
1.10753e-05
-1.8421e-05
-7.61579e-08
1.1355e-05
-1.76249e-05
-3.00963e-08
1.14838e-05
-1.67179e-05
1.64476e-08
1.14824e-05
-1.57412e-05
6.0773e-08
1.13737e-05
-1.47132e-05
1.01741e-07
1.117e-05
-1.36352e-05
1.41143e-07
1.08782e-05
-1.251e-05
1.79729e-07
1.05059e-05
-1.13429e-05
2.16581e-07
1.00631e-05
-1.01404e-05
2.53616e-07
9.56247e-06
-8.90631e-06
2.92588e-07
9.01717e-06
-7.64428e-06
3.34781e-07
8.4373e-06
-6.36588e-06
3.79456e-07
7.8192e-06
-5.094e-06
4.23581e-07
7.13902e-06
-3.81475e-06
4.68508e-07
6.40497e-06
-2.33122e-06
5.22855e-07
5.6398e-06
-4.46469e-07
5.93125e-07
4.88943e-06
1.31627e-06
6.50522e-07
4.16089e-06
4.41605e-06
7.10902e-07
3.35794e-06
8.77093e-06
7.18296e-07
2.3962e-06
1.32337e-05
6.66056e-07
1.34743e-06
1.57546e-05
5.9327e-07
4.32332e-07
1.56547e-05
4.59054e-07
9.85005e-06
1.92653e-07
5.23278e-07
-5.84943e-06
-1.03748e-07
1.57767e-06
-1.38767e-05
-2.03349e-07
2.79763e-06
-1.83763e-05
-2.4916e-07
4.04042e-06
-2.05042e-05
-2.96062e-07
5.26803e-06
-2.14161e-05
-3.30992e-07
6.46525e-06
-2.17636e-05
-3.53592e-07
7.6092e-06
-2.17912e-05
-3.60701e-07
8.68424e-06
-2.16345e-05
-3.53432e-07
9.66506e-06
-2.12964e-05
-3.37344e-07
1.05342e-05
-2.08109e-05
-3.1329e-07
1.12753e-05
-2.0198e-05
-2.82573e-07
1.18714e-05
-1.94713e-05
-2.46727e-07
1.2298e-05
-1.86389e-05
-2.08028e-07
1.25587e-05
-1.7715e-05
-1.70025e-07
1.26984e-05
-1.67235e-05
-1.33432e-07
1.27256e-05
-1.56703e-05
-9.73621e-08
1.26336e-05
-1.45549e-05
-6.54506e-08
1.24214e-05
-1.33833e-05
-3.88335e-08
1.20905e-05
-1.21632e-05
-1.50287e-08
1.16434e-05
-1.09083e-05
1.33337e-08
1.11001e-05
-9.64091e-06
4.46028e-08
1.04906e-05
-8.37567e-06
7.96901e-08
9.84407e-06
-7.11615e-06
1.19279e-07
9.18019e-06
-5.86368e-06
1.62477e-07
8.49116e-06
-4.61396e-06
2.09765e-07
7.74143e-06
-3.3245e-06
2.60289e-07
6.91197e-06
-1.82363e-06
3.22666e-07
6.0474e-06
1.34489e-08
4.0541e-07
5.21622e-06
1.68147e-06
4.66822e-07
4.41726e-06
4.66586e-06
5.49964e-07
3.60813e-06
8.96668e-06
6.13951e-07
2.6132e-06
1.36141e-05
6.14902e-07
1.48887e-06
1.63237e-05
5.55404e-07
4.82159e-07
1.62355e-05
4.26228e-07
1.0158e-05
1.74162e-07
5.84194e-07
-6.33502e-06
-9.76197e-08
1.65521e-06
-1.47932e-05
-1.53915e-07
2.78516e-06
-1.93303e-05
-1.75411e-07
3.89399e-06
-2.13881e-05
-2.24501e-07
4.98515e-06
-2.22312e-05
-2.75749e-07
6.06273e-06
-2.252e-05
-3.20863e-07
7.11926e-06
-2.24956e-05
-3.5179e-07
8.11879e-06
-2.22655e-05
-3.68182e-07
9.04575e-06
-2.18482e-05
-3.74756e-07
9.88161e-06
-2.12744e-05
-3.71977e-07
1.06105e-05
-2.05654e-05
-3.61027e-07
1.12187e-05
-1.97358e-05
-3.43232e-07
1.1693e-05
-1.87928e-05
-3.19845e-07
1.20427e-05
-1.77685e-05
-2.95549e-07
1.22536e-05
-1.66648e-05
-2.69006e-07
1.23123e-05
-1.54833e-05
-2.45092e-07
1.22121e-05
-1.42294e-05
-2.24521e-07
1.19572e-05
-1.29211e-05
-2.06533e-07
1.15591e-05
-1.15756e-05
-1.88698e-07
1.10346e-05
-1.02122e-05
-1.70844e-07
1.04165e-05
-8.87617e-06
-1.45781e-07
9.75153e-06
-7.59589e-06
-1.14043e-07
9.08179e-06
-6.36809e-06
-7.75655e-08
8.43522e-06
-5.17745e-06
-3.89407e-08
7.81272e-06
-3.99458e-06
3.81048e-09
7.19444e-06
-2.75669e-06
5.11656e-08
6.58225e-06
-1.32155e-06
1.10742e-07
5.96132e-06
4.32651e-07
2.02254e-07
5.20706e-06
2.1461e-06
2.90031e-07
4.28723e-06
5.16401e-06
4.21916e-07
3.21512e-06
9.51283e-06
5.26058e-07
2.06322e-06
1.42274e-05
5.38588e-07
9.99804e-07
1.69057e-05
4.81368e-07
1.70629e-07
1.6721e-05
3.43612e-07
1.02416e-05
8.7063e-08
5.90214e-07
-6.84318e-06
-8.18818e-08
1.48444e-06
-1.5589e-05
-9.83547e-08
2.31285e-06
-2.0059e-05
-9.96135e-08
3.06856e-06
-2.20034e-05
-1.40273e-07
3.81737e-06
-2.27829e-05
-1.96914e-07
4.57778e-06
-2.30259e-05
-2.5432e-07
5.34156e-06
-2.29585e-05
-3.00599e-07
6.07149e-06
-2.26583e-05
-3.36917e-07
6.75292e-06
-2.21653e-05
-3.64057e-07
7.38156e-06
-2.15185e-05
-3.84192e-07
7.9498e-06
-2.07361e-05
-3.97299e-07
8.45281e-06
-1.98346e-05
-4.03803e-07
8.89285e-06
-1.88235e-05
-4.08874e-07
9.22703e-06
-1.76974e-05
-4.04869e-07
9.42224e-06
-1.64602e-05
-3.99348e-07
9.45171e-06
-1.51184e-05
-3.93861e-07
9.31041e-06
-1.36982e-05
-3.89402e-07
9.0148e-06
-1.22403e-05
-3.84738e-07
8.59775e-06
-1.07814e-05
-3.76746e-07
8.09078e-06
-9.34367e-06
-3.61075e-07
7.52924e-06
-7.97606e-06
-3.38151e-07
6.95823e-06
-6.71647e-06
-3.08014e-07
6.40893e-06
-5.54794e-06
-2.70498e-07
5.90351e-06
-4.44046e-06
-2.31254e-07
5.45099e-06
-3.354e-06
-1.87767e-07
5.05668e-06
-2.22302e-06
-1.39137e-07
4.71575e-06
-9.0298e-07
-7.75554e-08
4.38862e-06
7.58085e-07
1.55794e-09
3.82667e-06
2.62234e-06
8.52407e-08
2.98384e-06
5.7826e-06
2.23473e-07
1.9346e-06
1.01961e-05
3.65224e-07
9.4192e-07
1.48101e-05
4.09313e-07
2.17544e-07
1.72671e-05
3.61759e-07
-1.52031e-07
1.68537e-05
2.35409e-07
1.00513e-05
3.81829e-08
4.35753e-07
-7.23631e-06
-4.2279e-08
9.14458e-07
-1.60517e-05
-1.58738e-08
1.28508e-06
-2.04261e-05
-3.48472e-09
1.6079e-06
-2.22943e-05
-3.18925e-08
1.95827e-06
-2.30447e-05
-8.85535e-08
2.35583e-06
-2.3273e-05
-1.50513e-07
2.79212e-06
-2.31868e-05
-2.08118e-07
3.25347e-06
-2.28597e-05
-2.60064e-07
3.7243e-06
-2.23272e-05
-3.09087e-07
4.17964e-06
-2.16217e-05
-3.52367e-07
4.59497e-06
-2.07657e-05
-3.85931e-07
4.94372e-06
-1.97742e-05
-4.09366e-07
5.19811e-06
-1.86564e-05
-4.21679e-07
5.34165e-06
-1.74107e-05
-4.30372e-07
5.36083e-06
-1.60399e-05
-4.39634e-07
5.25278e-06
-1.45578e-05
-4.52716e-07
5.02505e-06
-1.30002e-05
-4.70408e-07
4.7028e-06
-1.14287e-05
-4.89361e-07
4.33392e-06
-9.9097e-06
-5.02825e-07
3.97011e-06
-8.47689e-06
-5.02999e-07
3.62011e-06
-7.13969e-06
-4.86365e-07
3.30627e-06
-5.94673e-06
-4.55878e-07
3.03896e-06
-4.86365e-06
-4.16945e-07
2.82425e-06
-3.85029e-06
-3.75413e-07
2.66501e-06
-2.86573e-06
-3.2897e-07
2.56718e-06
-1.84641e-06
-2.78741e-07
2.52073e-06
-6.37226e-07
-2.19309e-07
2.48439e-06
9.36155e-07
-1.41815e-07
2.20444e-06
2.94887e-06
-4.68046e-08
1.65477e-06
6.23272e-06
9.91799e-08
9.10257e-07
1.06896e-05
2.50583e-07
2.10422e-07
1.51875e-05
3.21977e-07
-1.98997e-07
1.73922e-05
2.83722e-07
-3.2095e-07
1.68232e-05
1.51449e-07
9.75612e-06
-2.57322e-08
1.16086e-07
-7.35226e-06
-9.13016e-10
1.55268e-07
-1.61158e-05
2.42814e-08
1.24525e-07
-2.04293e-05
3.34678e-08
7.6623e-08
-2.22763e-05
2.95296e-08
4.39806e-08
-2.30186e-05
6.19143e-09
4.60909e-08
-2.32335e-05
-4.19176e-08
9.02911e-08
-2.31389e-05
-9.24213e-08
1.69907e-07
-2.27995e-05
-1.40105e-07
2.78237e-07
-2.2256e-05
-1.79869e-07
4.07095e-07
-2.15346e-05
-2.16264e-07
5.41769e-07
-2.065e-05
-2.50681e-07
6.6485e-07
-1.96147e-05
-2.83053e-07
7.64615e-07
-1.84421e-05
-3.14617e-07
8.44342e-07
-1.71443e-05
-3.46639e-07
9.13265e-07
-1.57288e-05
-3.80594e-07
9.7705e-07
-1.42035e-05
-4.1871e-07
1.03023e-06
-1.2592e-05
-4.62123e-07
1.05335e-06
-1.0944e-05
-5.08564e-07
1.02687e-06
-9.3318e-06
-5.52143e-07
9.61512e-07
-7.82944e-06
-5.82754e-07
8.94943e-07
-6.48858e-06
-5.851e-07
8.54817e-07
-5.34191e-06
-5.65149e-07
8.49214e-07
-4.32908e-06
-5.29317e-07
8.88077e-07
-3.4029e-06
-4.86535e-07
9.77398e-07
-2.51981e-06
-4.35486e-07
1.12213e-06
-1.61203e-06
-3.79335e-07
1.30729e-06
-5.07174e-07
-3.15449e-07
1.48032e-06
1.00165e-06
-2.38725e-07
1.38741e-06
3.18277e-06
-1.41084e-07
9.81274e-07
6.63384e-06
5.06105e-09
3.62643e-07
1.11412e-05
1.67042e-07
-1.67596e-07
1.54675e-05
2.50314e-07
-3.70469e-07
1.73873e-05
2.08069e-07
-3.32803e-07
1.66809e-05
1.04976e-07
9.45975e-06
-3.64403e-08
-2.08275e-07
-7.1766e-06
3.21833e-08
-5.4155e-07
-1.58462e-05
6.33651e-08
-8.50874e-07
-2.01931e-05
7.28097e-08
-1.11314e-06
-2.20953e-05
8.09613e-08
-1.3294e-06
-2.28893e-05
8.6616e-08
-1.49547e-06
-2.31487e-05
8.09119e-08
-1.60344e-06
-2.30877e-05
5.64443e-08
-1.65317e-06
-2.27721e-05
2.18666e-08
-1.64761e-06
-2.22417e-05
-2.04607e-08
-1.59536e-06
-2.15218e-05
-6.57283e-08
-1.49821e-06
-2.06352e-05
-1.12737e-07
-1.35556e-06
-1.95982e-05
-1.59987e-07
-1.16643e-06
-1.84255e-05
-2.06609e-07
-9.28946e-07
-1.71302e-05
-2.52607e-07
-6.38918e-07
-1.57212e-05
-2.98734e-07
-2.92664e-07
-1.4205e-05
-3.45929e-07
1.00824e-07
-1.25922e-05
-3.94512e-07
5.05766e-07
-1.09078e-05
-4.42544e-07
8.58264e-07
-9.20055e-06
-4.8498e-07
1.10022e-06
-7.54697e-06
-5.25493e-07
1.22175e-06
-6.04783e-06
-5.63224e-07
1.2405e-06
-4.78446e-06
-5.77016e-07
1.21629e-06
-3.7413e-06
-5.64218e-07
1.18647e-06
-2.83951e-06
-5.3406e-07
1.16583e-06
-2.01166e-06
-4.87888e-07
1.15643e-06
-1.17401e-06
-4.28926e-07
1.16331e-06
-1.54504e-07
-3.59847e-07
1.19346e-06
1.25203e-06
-2.80826e-07
1.04836e-06
3.50821e-06
-1.806e-07
7.00369e-07
7.02654e-06
-4.48905e-08
2.25398e-07
1.15122e-05
1.03855e-07
-1.2862e-07
1.563e-05
1.91438e-07
-2.72464e-07
1.73515e-05
1.79687e-07
-1.90181e-07
1.6518e-05
8.07462e-08
9.29813e-06
-2.84631e-08
-3.5518e-07
-6.87441e-06
5.19328e-08
-8.77717e-07
-1.53844e-05
6.00683e-08
-1.26983e-06
-1.98588e-05
5.73693e-08
-1.52651e-06
-2.19141e-05
7.50821e-08
-1.72753e-06
-2.27846e-05
9.59585e-08
-1.88601e-06
-2.30994e-05
1.08715e-07
-2.00249e-06
-2.30825e-05
1.10749e-07
-2.0686e-06
-2.28075e-05
1.00901e-07
-2.07733e-06
-2.2315e-05
8.13941e-08
-2.02412e-06
-2.16329e-05
5.71682e-08
-1.90555e-06
-2.07817e-05
2.71273e-08
-1.72133e-06
-1.97775e-05
-5.75804e-09
-1.47152e-06
-1.86355e-05
-4.07558e-08
-1.15551e-06
-1.73693e-05
-7.7949e-08
-7.70335e-07
-1.59891e-05
-1.18365e-07
-3.10872e-07
-1.45014e-05
-1.64238e-07
2.2499e-07
-1.29106e-05
-2.18606e-07
8.32458e-07
-1.1232e-05
-2.84366e-07
1.47163e-06
-9.48177e-06
-3.59056e-07
2.04307e-06
-7.69161e-06
-4.27752e-07
2.42244e-06
-5.94921e-06
-4.78711e-07
2.55231e-06
-4.38857e-06
-5.26227e-07
2.48185e-06
-3.12198e-06
-5.49094e-07
2.28716e-06
-2.10235e-06
-5.42472e-07
2.01958e-06
-1.23019e-06
-5.13642e-07
1.70728e-06
-4.00361e-07
-4.60792e-07
1.42019e-06
5.19267e-07
-3.8561e-07
1.15369e-06
1.80849e-06
-2.88054e-07
9.28834e-07
3.90327e-06
-1.67434e-07
7.55606e-07
7.22907e-06
-2.62614e-08
5.25461e-07
1.16324e-05
1.12489e-07
2.95113e-07
1.56632e-05
1.99046e-07
1.38159e-07
1.73231e-05
1.88136e-07
6.12644e-08
1.64948e-05
1.03659e-07
9.33856e-06
2.0909e-08
-3.54707e-07
-6.55112e-06
3.10648e-08
-6.70918e-07
-1.50752e-05
6.79968e-09
-8.23722e-07
-1.97017e-05
-4.49417e-09
-8.76558e-07
-2.18897e-05
2.81553e-08
-8.78674e-07
-2.28449e-05
6.20736e-08
-8.48895e-07
-2.32181e-05
8.86918e-08
-7.90215e-07
-2.32479e-05
1.0632e-07
-6.90355e-07
-2.30238e-05
1.16028e-07
-5.4546e-07
-2.25789e-05
1.18569e-07
-3.52447e-07
-2.19417e-05
1.15371e-07
-1.09894e-07
-2.11333e-05
1.08565e-07
1.86934e-07
-2.01706e-05
9.56275e-08
5.40137e-07
-1.90669e-05
7.75067e-08
9.49073e-07
-1.78346e-05
5.5552e-08
1.413e-06
-1.64842e-05
3.02548e-08
1.93265e-06
-1.50226e-05
5.84951e-10
2.5057e-06
-1.34483e-05
-3.64009e-08
3.11531e-06
-1.17564e-05
-8.62913e-08
3.72876e-06
-9.95026e-06
-1.46056e-07
4.3086e-06
-8.05369e-06
-2.189e-07
4.78405e-06
-6.11505e-06
-3.1072e-07
5.01483e-06
-4.23048e-06
-3.89767e-07
4.91458e-06
-2.56891e-06
-4.53445e-07
4.53791e-06
-1.23766e-06
-4.88398e-07
4.07574e-06
-2.77284e-07
-4.90881e-07
3.56072e-06
5.75465e-07
-4.60722e-07
2.97522e-06
1.50652e-06
-4.01308e-07
2.35159e-06
2.74758e-06
-3.14434e-07
1.86222e-06
4.59033e-06
-1.95914e-07
1.6262e-06
7.51368e-06
-4.62929e-08
1.47656e-06
1.16752e-05
1.09098e-07
1.21243e-06
1.57088e-05
2.202e-07
8.25798e-07
1.74805e-05
2.31127e-07
3.97404e-07
1.67673e-05
1.58619e-07
9.66711e-06
6.88251e-08
-1.23146e-07
-6.42923e-06
1.2264e-09
-9.79041e-08
-1.50479e-05
-5.26149e-08
1.4675e-07
-1.98569e-05
-8.95252e-08
5.12505e-07
-2.21776e-05
-7.78723e-08
9.17456e-07
-2.3208e-05
-4.18488e-08
1.3255e-06
-2.36248e-05
-1.46021e-09
1.72557e-06
-2.36817e-05
3.36295e-08
2.13079e-06
-2.34891e-05
5.99603e-08
2.541e-06
-2.30661e-05
7.68774e-08
2.95951e-06
-2.24453e-05
8.48169e-08
3.38698e-06
-2.16455e-05
8.45314e-08
3.82197e-06
-2.06823e-05
7.65203e-08
4.26024e-06
-1.95666e-05
6.11843e-08
4.69352e-06
-1.83079e-05
3.97685e-08
5.11058e-06
-1.69159e-05
1.43667e-08
5.50063e-06
-1.54e-05
-1.29085e-08
5.85709e-06
-1.37626e-05
-4.25138e-08
6.18931e-06
-1.20152e-05
-7.36392e-08
6.51306e-06
-1.01741e-05
-1.00172e-07
6.84733e-06
-8.25682e-06
-1.31452e-07
7.15247e-06
-6.24697e-06
-1.73555e-07
7.32817e-06
-4.16655e-06
-2.39952e-07
7.23964e-06
-2.15731e-06
-3.23276e-07
6.86429e-06
-4.60592e-07
-4.01786e-07
6.40052e-06
6.23794e-07
-4.37245e-07
5.79691e-06
1.61718e-06
-4.37891e-07
5.05153e-06
2.66069e-06
-4.08374e-07
4.25458e-06
3.89324e-06
-3.48113e-07
3.51792e-06
5.58112e-06
-2.5348e-07
2.99841e-06
8.14996e-06
-1.16321e-07
2.69014e-06
1.19295e-05
5.40169e-08
2.23215e-06
1.59635e-05
2.03273e-07
1.51198e-06
1.7941e-05
2.58739e-07
6.94848e-07
1.73653e-05
2.17816e-07
1.02501e-05
1.11837e-07
1.50928e-07
-6.53765e-06
-4.20444e-08
5.98043e-07
-1.53739e-05
-1.20765e-07
1.25432e-06
-2.03642e-05
-1.48699e-07
1.99111e-06
-2.27745e-05
-1.39704e-07
2.72328e-06
-2.38264e-05
-1.13594e-07
3.41451e-06
-2.42352e-05
-8.06597e-08
4.05294e-06
-2.42721e-05
-4.7925e-08
4.64676e-06
-2.40638e-05
-1.8932e-08
5.19137e-06
-2.36151e-05
4.51948e-09
5.68822e-06
-2.29636e-05
2.17153e-08
6.1392e-06
-2.2128e-05
3.17253e-08
6.54496e-06
-2.11218e-05
3.39633e-08
6.90412e-06
-1.99532e-05
2.77004e-08
7.21046e-06
-1.86264e-05
1.25184e-08
7.45412e-06
-1.71486e-05
-1.06595e-08
7.62125e-06
-1.55283e-05
-3.85899e-08
7.71313e-06
-1.37902e-05
-6.38288e-08
7.74236e-06
-1.19667e-05
-7.72743e-08
7.75166e-06
-1.00828e-05
-1.00215e-07
7.76477e-06
-8.14043e-06
-1.29016e-07
7.79881e-06
-6.11609e-06
-1.64387e-07
7.82631e-06
-3.98411e-06
-2.0934e-07
7.76087e-06
-1.82314e-06
-2.68124e-07
7.52644e-06
1.11997e-07
-3.37595e-07
7.15818e-06
1.37507e-06
-3.8241e-07
6.60061e-06
2.58555e-06
-4.10075e-07
5.9294e-06
3.74303e-06
-4.10237e-07
5.17558e-06
5.02873e-06