/*--------------------------------*- C++ -*----------------------------------*\
| =========                 |                                                 |
| \\      /  F ield         | OpenFOAM: The Open Source CFD Toolbox           |
|  \\    /   O peration     | Version:  2.0.x                                 |
|   \\  /    A nd           | Web:      www.OpenFOAM.org                      |
|    \\/     M anipulation  |                                                 |
\*---------------------------------------------------------------------------*/
FoamFile
{
    version     2.0;
    format      ascii;
    class       volScalarField;
    location    "400";
    object      T;
}
// * * * * * * * * * * * * * * * * * * * * * * * * * * * * * * * * * * * * * //

dimensions      [0 0 0 1 0 0 0];

internalField   nonuniform List<scalar> 
78750
(
288.653
289.32
289.627
289.748
289.817
289.9
289.997
290.098
290.192
290.273
290.349
290.421
290.488
290.552
290.61
290.664
290.714
290.759
290.798
290.832
290.862
290.885
290.904
290.916
290.925
290.924
290.923
290.922
290.921
290.919
290.919
290.929
291.097
292.898
300.595
288.403
288.774
288.996
289.193
289.41
289.633
289.847
290.04
290.216
290.382
290.54
290.696
290.841
290.973
291.094
291.207
291.311
291.403
291.483
291.552
291.61
291.654
291.687
291.708
291.714
291.711
291.683
291.633
291.562
291.467
291.346
291.264
291.444
293.476
300.896
288.341
288.709
289.066
289.43
289.782
290.098
290.362
290.59
290.792
290.974
291.137
291.277
291.406
291.524
291.633
291.732
291.823
291.903
291.971
292.029
292.076
292.112
292.137
292.151
292.151
292.139
292.11
292.064
291.99
291.878
291.75
291.784
292.457
295.061
301.684
288.413
288.93
289.42
289.847
290.169
290.41
290.606
290.773
290.924
291.064
291.199
291.332
291.458
291.576
291.684
291.783
291.872
291.951
292.021
292.079
292.126
292.16
292.183
292.196
292.2
292.195
292.179
292.145
292.092
292.031
292.043
292.34
293.565
296.425
302.637
288.449
289.025
289.524
289.913
290.206
290.439
290.642
290.828
291.003
291.167
291.317
291.454
291.583
291.703
291.816
291.921
292.017
292.102
292.175
292.232
292.275
292.302
292.315
292.315
292.303
292.282
292.254
292.216
292.172
292.162
292.275
292.896
294.426
297.397
303.313
288.486
289.111
289.622
290.003
290.282
290.503
290.695
290.87
291.033
291.185
291.328
291.464
291.592
291.712
291.825
291.93
292.027
292.114
292.188
292.246
292.288
292.316
292.329
292.329
292.319
292.3
292.278
292.256
292.255
292.317
292.629
293.516
295.225
298.201
303.826
288.491
289.12
289.63
290.009
290.286
290.507
290.698
290.872
291.034
291.185
291.328
291.464
291.592
291.712
291.825
291.931
292.028
292.117
292.197
292.269
292.329
292.37
292.393
292.398
292.391
292.373
292.349
292.332
292.344
292.469
292.899
293.959
295.772
298.728
304.116
288.5
289.134
289.641
290.014
290.288
290.507
290.698
290.872
291.033
291.185
291.328
291.463
291.59
291.711
291.824
291.929
292.027
292.117
292.198
292.27
292.334
292.391
292.43
292.451
292.457
292.454
292.448
292.455
292.521
292.746
293.329
294.557
296.43
299.311
304.409
288.501
289.134
289.641
290.014
290.285
290.499
290.684
290.851
291.006
291.152
291.289
291.419
291.544
291.663
291.777
291.885
291.987
292.084
292.174
292.256
292.33
292.393
292.449
292.496
292.525
292.542
292.553
292.577
292.66
292.917
293.575
294.901
296.827
299.678
304.576
288.5
289.131
289.635
290.006
290.276
290.49
290.675
290.842
290.998
291.143
291.28
291.409
291.532
291.649
291.759
291.864
291.963
292.057
292.146
292.23
292.309
292.382
292.448
292.507
292.561
292.606
292.649
292.707
292.822
293.106
293.795
295.163
297.124
299.963
304.71
288.5
289.132
289.64
290.015
290.287
290.5
290.682
290.847
290.998
291.141
291.275
291.403
291.524
291.639
291.748
291.851
291.948
292.04
292.127
292.209
292.287
292.362
292.435
292.504
292.568
292.631
292.699
292.789
292.938
293.251
293.962
295.357
297.347
300.174
304.793
288.5
289.139
289.659
290.045
290.323
290.54
290.727
290.894
291.048
291.191
291.326
291.452
291.572
291.684
291.79
291.89
291.983
292.071
292.152
292.228
292.3
292.368
292.435
292.502
292.57
292.641
292.725
292.842
293.031
293.4
294.171
295.617
297.635
300.441
304.915
288.512
289.175
289.715
290.114
290.399
290.623
290.814
290.987
291.146
291.293
291.431
291.561
291.682
291.796
291.903
292.003
292.096
292.18
292.255
292.323
292.385
292.441
292.495
292.549
292.605
292.669
292.753
292.878
293.093
293.515
294.361
295.871
297.909
300.681
305.025
288.522
289.209
289.773
290.187
290.482
290.714
290.915
291.096
291.263
291.419
291.565
291.702
291.83
291.95
292.061
292.162
292.254
292.336
292.408
292.47
292.523
292.569
292.61
292.648
292.689
292.737
292.807
292.919
293.119
293.527
294.374
295.893
297.958
300.746
305.047
288.546
289.275
289.865
290.289
290.592
290.831
291.039
291.228
291.404
291.567
291.72
291.864
291.999
292.124
292.239
292.342
292.434
292.514
292.582
292.638
292.683
292.72
292.75
292.778
292.809
292.849
292.912
293.019
293.215
293.618
294.46
296
298.103
300.904
305.132
288.567
289.333
289.943
290.377
290.687
290.934
291.152
291.352
291.538
291.713
291.877
292.03
292.173
292.306
292.427
292.536
292.631
292.711
292.774
292.822
292.857
292.883
292.903
292.922
292.947
292.985
293.052
293.173
293.408
293.889
294.832
296.437
298.498
301.195
305.271
288.593
289.393
290.012
290.438
290.743
290.992
291.215
291.421
291.616
291.801
291.976
292.142
292.296
292.44
292.575
292.697
292.803
292.885
292.946
292.99
293.02
293.04
293.057
293.074
293.099
293.14
293.211
293.343
293.601
294.133
295.151
296.815
298.841
301.444
305.395
288.604
289.408
290.019
290.442
290.746
290.995
291.218
291.425
291.62
291.805
291.982
292.149
292.308
292.458
292.6
292.734
292.857
292.968
293.053
293.108
293.144
293.17
293.194
293.22
293.255
293.309
293.396
293.546
293.825
294.377
295.425
297.117
299.1
301.624
305.483
288.608
289.41
290.019
290.44
290.743
290.991
291.214
291.421
291.616
291.802
291.979
292.147
292.307
292.457
292.598
292.732
292.856
292.97
293.072
293.158
293.225
293.271
293.308
293.347
293.395
293.465
293.577
293.771
294.12
294.743
295.825
297.503
299.402
301.813
305.568
288.597
289.375
289.968
290.385
290.686
290.933
291.153
291.358
291.552
291.736
291.912
292.08
292.24
292.392
292.537
292.675
292.807
292.932
293.05
293.156
293.25
293.33
293.394
293.448
293.506
293.581
293.698
293.907
294.305
295.033
296.21
297.894
299.696
301.972
305.604
288.572
289.311
289.887
290.302
290.603
290.846
291.062
291.263
291.452
291.632
291.804
291.967
292.123
292.271
292.413
292.548
292.68
292.81
292.942
293.077
293.209
293.326
293.428
293.516
293.594
293.677
293.786
293.969
294.322
295.006
296.187
297.885
299.686
301.953
305.588
288.556
289.28
289.856
290.277
290.584
290.829
291.046
291.246
291.435
291.615
291.787
291.95
292.105
292.252
292.389
292.518
292.638
292.753
292.866
292.982
293.107
293.248
293.394
293.527
293.638
293.742
293.864
294.039
294.342
294.939
296.032
297.709
299.552
301.86
305.523
288.548
289.267
289.847
290.274
290.584
290.831
291.049
291.252
291.444
291.628
291.804
291.973
292.133
292.285
292.426
292.557
292.676
292.784
292.885
292.985
293.093
293.216
293.361
293.512
293.652
293.787
293.936
294.13
294.429
294.965
296.01
297.675
299.537
301.859
305.521
288.547
289.269
289.859
290.298
290.618
290.874
291.102
291.313
291.513
291.706
291.891
292.07
292.241
292.403
292.554
292.691
292.812
292.915
293.003
293.083
293.166
293.264
293.387
293.53
293.679
293.835
294.016
294.25
294.601
295.19
296.209
297.832
299.648
301.922
305.553
288.558
289.301
289.906
290.351
290.675
290.938
291.171
291.39
291.598
291.799
291.994
292.183
292.366
292.54
292.706
292.856
292.985
293.091
293.175
293.243
293.307
293.381
293.476
293.596
293.737
293.906
294.114
294.393
294.82
295.528
296.676
298.32
300.037
302.17
305.664
288.571
289.332
289.939
290.377
290.696
290.958
291.193
291.413
291.625
291.832
292.034
292.235
292.433
292.63
292.817
292.992
293.142
293.26
293.35
293.415
293.469
293.526
293.598
293.694
293.823
293.99
294.205
294.507
294.983
295.774
297.02
298.671
300.308
302.348
305.745
288.579
289.347
289.947
290.379
290.697
290.959
291.194
291.415
291.627
291.833
292.036
292.237
292.437
292.637
292.836
293.034
293.223
293.387
293.504
293.58
293.636
293.687
293.747
293.828
293.942
294.096
294.304
294.607
295.088
295.883
297.111
298.726
300.324
302.354
305.753
288.583
289.349
289.947
290.378
290.694
290.954
291.188
291.409
291.621
291.828
292.031
292.233
292.434
292.635
292.836
293.034
293.225
293.405
293.563
293.691
293.774
293.839
293.903
293.981
294.087
294.23
294.426
294.711
295.166
295.929
297.14
298.678
300.255
302.278
305.722
288.581
289.338
289.924
290.345
290.653
290.906
291.134
291.348
291.556
291.758
291.958
292.158
292.36
292.565
292.77
292.976
293.181
293.378
293.557
293.712
293.842
293.94
294.022
294.11
294.218
294.36
294.55
294.817
295.236
295.944
297.117
298.637
300.182
302.194
305.679
288.566
289.298
289.875
290.296
290.604
290.854
291.077
291.287
291.489
291.687
291.881
292.072
292.259
292.445
292.635
292.833
293.042
293.257
293.47
293.67
293.845
293.991
294.115
294.233
294.364
294.527
294.737
295.022
295.44
296.104
297.153
298.636
300.156
302.155
305.656
288.555
289.279
289.864
290.291
290.602
290.852
291.076
291.286
291.488
291.686
291.882
292.074
292.259
292.435
292.604
292.769
292.932
293.111
293.313
293.537
293.763
293.97
294.147
294.307
294.469
294.656
294.893
295.211
295.668
296.355
297.382
298.726
300.172
302.149
305.647
288.552
289.279
289.866
290.303
290.62
290.876
291.104
291.32
291.531
291.74
291.946
292.144
292.326
292.491
292.643
292.787
292.931
293.082
293.245
293.43
293.651
293.892
294.126
294.344
294.559
294.786
295.06
295.422
295.93
296.667
297.703
298.974
300.339
302.249
305.673
288.557
289.306
289.924
290.382
290.714
290.981
291.223
291.456
291.687
291.918
292.143
292.349
292.527
292.675
292.799
292.911
293.02
293.135
293.267
293.423
293.615
293.841
294.088
294.345
294.605
294.876
295.191
295.596
296.154
296.935
297.975
299.178
300.481
302.354
305.709
288.585
289.39
290.049
290.529
290.875
291.159
291.421
291.678
291.938
292.198
292.445
292.66
292.83
292.957
293.053
293.133
293.209
293.291
293.389
293.511
293.668
293.863
294.092
294.351
294.628
294.925
295.266
295.699
296.286
297.092
298.13
299.294
300.56
302.416
305.736
288.625
289.495
290.188
290.678
291.034
291.335
291.619
291.902
292.191
292.481
292.753
292.975
293.134
293.242
293.317
293.378
293.437
293.502
293.581
293.68
293.808
293.97
294.168
294.412
294.696
295.009
295.369
295.821
296.426
297.239
298.257
299.379
300.616
302.471
305.766
288.665
289.587
290.295
290.782
291.141
291.451
291.748
292.048
292.358
292.675
292.97
293.204
293.359
293.46
293.53
293.588
293.645
293.708
293.783
293.874
293.986
294.127
294.305
294.531
294.805
295.122
295.493
295.956
296.566
297.37
298.358
299.438
300.654
302.512
305.788
288.684
289.616
290.318
290.798
291.154
291.463
291.761
292.062
292.372
292.685
292.988
293.255
293.467
293.597
293.685
293.755
293.82
293.89
293.971
294.065
294.174
294.304
294.467
294.675
294.937
295.252
295.629
296.102
296.716
297.508
298.461
299.492
300.686
302.557
305.812
288.685
289.616
290.316
290.793
291.148
291.458
291.757
292.056
292.36
292.669
292.973
293.252
293.484
293.665
293.786
293.877
293.956
294.038
294.128
294.232
294.351
294.486
294.649
294.854
295.11
295.425
295.807
296.286
296.9
297.676
298.586
299.563
300.728
302.605
305.83
288.677
289.594
290.281
290.752
291.104
291.411
291.704
291.994
292.286
292.588
292.898
293.205
293.479
293.695
293.853
293.967
294.062
294.153
294.254
294.37
294.504
294.655
294.832
295.046
295.311
295.634
296.031
296.522
297.138
297.894
298.756
299.678
300.808
302.67
305.851
288.664
289.558
290.232
290.697
291.043
291.344
291.632
291.917
292.205
292.501
292.81
293.13
293.437
293.695
293.894
294.036
294.147
294.249
294.357
294.484
294.636
294.814
295.019
295.258
295.543
295.885
296.299
296.808
297.429
298.166
298.982
299.854
300.952
302.795
305.899
288.657
289.541
290.21
290.671
291.015
291.316
291.603
291.886
292.17
292.46
292.762
293.079
293.4
293.692
293.922
294.089
294.216
294.325
294.438
294.569
294.734
294.94
295.186
295.469
295.792
296.165
296.604
297.127
297.746
298.454
299.222
300.048
301.112
302.919
305.944
288.653
289.533
290.2
290.66
291.003
291.302
291.586
291.866
292.149
292.441
292.746
293.066
293.391
293.691
293.942
294.131
294.273
294.389
294.501
294.628
294.789
295.003
295.276
295.602
295.974
296.393
296.87
297.416
298.039
298.729
299.464
300.257
301.287
303.047
305.987
288.651
289.531
290.197
290.657
290.999
291.297
291.582
291.864
292.151
292.447
292.76
293.092
293.428
293.736
293.99
294.185
294.334
294.454
294.564
294.682
294.829
295.029
295.303
295.649
296.056
296.514
297.028
297.607
298.25
298.943
299.669
300.447
301.461
303.185
306.036
288.658
289.545
290.213
290.672
291.014
291.313
291.601
291.889
292.183
292.49
292.818
293.167
293.521
293.841
294.092
294.277
294.416
294.532
294.638
294.746
294.876
295.053
295.303
295.644
296.067
296.554
297.097
297.7
298.361
299.065
299.792
300.569
301.581
303.286
306.075
288.672
289.571
290.238
290.693
291.034
291.334
291.623
291.913
292.208
292.516
292.841
293.187
293.541
293.874
294.152
294.361
294.512
294.625
294.723
294.821
294.932
295.078
295.289
295.592
296.006
296.514
297.087
297.702
298.373
299.085
299.82
300.597
301.604
303.299
306.075
288.674
289.569
290.23
290.681
291.018
291.314
291.598
291.878
292.158
292.443
292.737
293.047
293.377
293.72
294.054
294.338
294.55
294.7
294.813
294.909
295.009
295.127
295.286
295.522
295.866
296.335
296.912
297.571
298.278
299.019
299.779
300.572
301.581
303.269
306.053
288.648
289.501
290.145
290.591
290.923
291.209
291.476
291.732
291.982
292.227
292.47
292.72
292.987
293.29
293.638
294.018
294.377
294.659
294.85
294.981
295.089
295.197
295.326
295.502
295.762
296.141
296.659
297.303
298.041
298.834
299.646
300.476
301.5
303.187
306.009
288.603
289.399
290.026
290.472
290.801
291.079
291.335
291.578
291.811
292.034
292.253
292.472
292.703
292.953
293.233
293.552
293.93
294.355
294.73
294.979
295.144
295.275
295.4
295.546
295.752
296.064
296.515
297.125
297.872
298.708
299.567
300.419
301.44
303.115
305.976
288.578
289.356
289.98
290.427
290.758
291.038
291.295
291.54
291.775
292.004
292.228
292.454
292.689
292.943
293.222
293.515
293.822
294.176
294.58
294.927
295.167
295.342
295.487
295.636
295.816
296.078
296.488
297.066
297.813
298.674
299.555
300.418
301.442
303.116
305.978
288.577
289.362
289.991
290.437
290.768
291.051
291.312
291.561
291.802
292.037
292.273
292.519
292.793
293.119
293.484
293.823
294.116
294.407
294.726
295.027
295.267
295.452
295.608
295.763
295.942
296.181
296.534
297.078
297.822
298.686
299.574
300.441
301.474
303.163
306.011
288.609
289.44
290.08
290.519
290.847
291.132
291.399
291.656
291.907
292.158
292.42
292.714
293.079
293.549
294.078
294.483
294.739
294.931
295.118
295.313
295.488
295.644
295.795
295.954
296.142
296.386
296.734
297.244
297.952
298.811
299.688
300.542
301.573
303.265
306.072
288.638
289.496
290.13
290.558
290.882
291.167
291.436
291.696
291.953
292.212
292.489
292.81
293.226
293.777
294.408
294.942
295.214
295.353
295.476
295.61
295.746
295.885
296.035
296.204
296.409
296.675
297.042
297.558
298.244
299.053
299.878
300.699
301.728
303.431
306.159
288.65
289.507
290.137
290.562
290.884
291.17
291.439
291.699
291.955
292.214
292.491
292.807
293.203
293.728
294.362
294.966
295.366
295.595
295.745
295.875
296.002
296.135
296.286
296.468
296.696
296.99
297.383
297.908
298.573
299.33
300.098
300.879
301.881
303.557
306.21
288.651
289.504
290.119
290.531
290.844
291.119
291.378
291.624
291.861
292.093
292.325
292.571
292.86
293.254
293.828
294.561
295.238
295.675
295.937
296.108
296.247
296.388
296.548
296.741
296.983
297.299
297.713
298.243
298.883
299.587
300.306
301.058
302.042
303.69
306.257
288.629
289.444
290.044
290.453
290.761
291.029
291.28
291.52
291.751
291.976
292.199
292.425
292.666
292.952
293.358
293.975
294.758
295.45
295.911
296.205
296.414
296.593
296.773
296.979
297.231
297.549
297.953
298.462
299.068
299.73
300.412
301.137
302.095
303.712
306.255
288.623
289.43
290.024
290.429
290.733
290.999
291.246
291.482
291.709
291.931
292.151
292.374
292.608
292.874
293.209
293.679
294.347
295.126
295.777
296.223
296.53
296.768
296.986
297.215
297.482
297.811
298.218
298.709
299.277
299.896
300.544
301.246
302.182
303.76
306.26
288.612
289.397
289.978
290.379
290.678
290.936
291.175
291.401
291.619
291.829
292.035
292.239
292.444
292.658
292.898
293.211
293.676
294.369
295.211
295.969
296.488
296.816
297.093
297.358
297.638
297.964
298.355
298.825
299.365
299.954
300.581
301.269
302.187
303.741
306.245
288.586
289.338
289.911
290.314
290.614
290.87
291.104
291.326
291.539
291.744
291.944
292.138
292.326
292.509
292.691
292.884
293.129
293.517
294.16
295.042
295.982
296.664
297.076
297.405
297.737
298.084
298.473
298.927
299.447
300.019
300.627
301.293
302.184
303.7
306.211
288.571
289.305
289.871
290.273
290.571
290.821
291.05
291.265
291.47
291.668
291.86
292.046
292.228
292.409
292.592
292.782
292.99
293.249
293.638
294.281
295.185
296.123
296.87
297.379
297.772
298.18
298.609
299.075
299.584
300.137
300.728
301.377
302.233
303.709
306.206
288.562
289.283
289.847
290.252
290.55
290.798
291.024
291.236
291.437
291.63
291.817
292
292.181
292.362
292.545
292.735
292.937
293.164
293.454
293.891
294.604
295.576
296.523
297.24
297.756
298.181
298.636
299.128
299.659
300.213
300.795
301.432
302.273
303.719
306.205
288.551
289.262
289.828
290.24
290.543
290.794
291.021
291.232
291.433
291.625
291.811
291.991
292.167
292.339
292.51
292.68
292.853
293.035
293.243
293.517
293.955
294.7
295.729
296.778
297.585
298.156
298.631
299.128
299.663
300.237
300.838
301.482
302.314
303.732
306.199
288.539
289.237
289.802
290.217
290.525
290.779
291.007
291.219
291.42
291.612
291.796
291.976
292.15
292.323
292.493
292.663
292.835
293.014
293.206
293.422
293.693
294.103
294.831
295.867
296.972
297.864
298.536
299.108
299.653
300.23
300.841
301.498
302.329
303.731
306.191
288.535
289.232
289.797
290.214
290.523
290.778
291.006
291.219
291.422
291.616
291.803
291.983
292.159
292.33
292.499
292.666
292.835
293.011
293.2
293.413
293.669
294.003
294.458
295.156
296.187
297.293
298.199
298.918
299.57
300.204
300.839
301.504
302.341
303.736
306.194
288.531
289.221
289.787
290.209
290.523
290.785
291.02
291.239
291.445
291.643
291.834
292.018
292.198
292.372
292.543
292.712
292.881
293.055
293.244
293.459
293.723
294.065
294.513
295.12
295.987
297.041
298.043
298.88
299.588
300.24
300.886
301.567
302.426
303.844
306.255
288.531
289.219
289.784
290.207
290.523
290.786
291.023
291.248
291.463
291.67
291.867
292.059
292.245
292.426
292.603
292.778
292.951
293.128
293.316
293.531
293.805
294.192
294.738
295.395
296.211
297.188
298.155
298.995
299.736
300.405
301.057
301.737
302.598
304.013
306.341
288.532
289.22
289.782
290.205
290.522
290.785
291.023
291.248
291.466
291.679
291.891
292.095
292.293
292.486
292.673
292.853
293.028
293.202
293.384
293.59
293.859
294.268
294.907
295.752
296.648
297.552
298.423
299.208
299.914
300.573
301.219
301.902
302.783
304.207
306.436
288.53
289.212
289.77
290.192
290.511
290.776
291.017
291.245
291.465
291.68
291.894
292.111
292.327
292.539
292.741
292.935
293.12
293.295
293.468
293.649
293.867
294.188
294.758
295.655
296.676
297.614
298.459
299.224
299.923
300.582
301.233
301.921
302.802
304.222
306.437
288.528
289.204
289.759
290.179
290.497
290.762
291.003
291.231
291.454
291.673
291.891
292.111
292.335
292.564
292.797
293.017
293.22
293.408
293.58
293.744
293.914
294.128
294.456
295.076
296.07
297.214
298.262
299.153
299.887
300.556
301.212
301.899
302.764
304.167
306.4
288.521
289.187
289.735
290.153
290.47
290.735
290.977
291.207
291.431
291.654
291.877
292.102
292.331
292.564
292.803
293.048
293.29
293.51
293.704
293.877
294.031
294.178
294.349
294.604
295.07
295.867
296.922
298.041
299.102
300.012
300.805
301.553
302.435
303.842
306.24
288.514
289.17
289.711
290.124
290.438
290.7
290.94
291.17
291.397
291.624
291.854
292.086
292.32
292.557
292.799
293.047
293.302
293.561
293.808
294.019
294.199
294.352
294.491
294.634
294.827
295.17
295.795
296.745
297.895
299.07
300.148
301.102
302.083
303.534
306.102
288.508
289.157
289.701
290.115
290.428
290.688
290.926
291.156
291.384
291.613
291.843
292.075
292.308
292.544
292.785
293.035
293.296
293.561
293.83
294.091
294.318
294.509
294.67
294.81
294.949
295.139
295.477
296.092
297.076
298.326
299.624
300.776
301.868
303.384
306.057
288.505
289.156
289.702
290.12
290.437
290.7
290.942
291.178
291.413
291.649
291.88
292.105
292.324
292.545
292.772
293.011
293.267
293.541
293.826
294.11
294.381
294.619
294.817
294.982
295.136
295.303
295.543
296
296.814
298.015
299.406
300.666
301.819
303.366
306.064
288.507
289.168
289.733
290.17
290.498
290.772
291.031
291.288
291.548
291.804
292.042
292.257
292.453
292.64
292.833
293.041
293.272
293.531
293.815
294.117
294.417
294.687
294.916
295.116
295.302
295.49
295.722
296.096
296.819
297.984
299.389
300.663
301.818
303.366
306.074
288.525
289.23
289.834
290.292
290.637
290.933
291.222
291.52
291.823
292.11
292.358
292.559
292.724
292.873
293.025
293.193
293.388
293.616
293.879
294.172
294.476
294.762
295.015
295.242
295.453
295.659
295.895
296.244
296.87
297.928
299.287
300.562
301.729
303.303
306.062
288.561
289.331
289.978
290.456
290.819
291.145
291.477
291.829
292.184
292.495
292.732
292.903
293.037
293.158
293.286
293.433
293.608
293.818
294.061
294.331
294.608
294.877
295.138
295.385
295.615
295.832
296.064
296.374
296.897
297.803
299.042
300.281
301.443
303.045
305.968
288.603
289.441
290.121
290.609
290.988
291.343
291.724
292.139
292.534
292.835
293.04
293.178
293.288
293.397
293.52
293.667
293.844
294.053
294.289
294.544
294.806
295.068
295.325
295.575
295.809
296.03
296.256
296.533
296.977
297.789
298.925
300.113
301.266
302.892
305.895
288.647
289.535
290.224
290.706
291.091
291.472
291.884
292.315
292.722
293.05
293.252
293.388
293.498
293.611
293.742
293.902
294.094
294.318
294.564
294.822
295.086
295.352
295.617
295.871
296.105
296.323
296.538
296.786
297.151
297.808
298.914
300.097
301.251
302.883
305.891
288.654
289.544
290.23
290.709
291.095
291.479
291.89
292.317
292.725
293.071
293.337
293.514
293.653
293.788
293.94
294.124
294.345
294.597
294.864
295.137
295.416
295.7
295.981
296.253
296.511
296.75
296.985
297.251
297.623
298.213
299.098
300.14
301.262
302.922
305.931
288.653
289.535
290.203
290.672
291.054
291.427
291.821
292.244
292.671
293.05
293.345
293.567
293.736
293.889
294.056
294.259
294.507
294.799
295.109
295.427
295.753
296.079
296.395
296.701
296.999
297.298
297.602
297.94
298.37
298.963
299.732
300.586
301.597
303.23
306.065
288.642
289.497
290.142
290.596
290.963
291.321
291.704
292.119
292.55
292.96
293.307
293.57
293.77
293.937
294.105
294.304
294.557
294.87
295.225
295.603
295.998
296.391
296.766
297.128
297.488
297.856
298.249
298.684
299.182
299.768
300.431
301.146
302.057
303.606
306.209
288.639
289.479
290.104
290.544
290.901
291.244
291.593
291.955
292.335
292.729
293.12
293.469
293.745
293.955
294.137
294.33
294.572
294.877
295.241
295.657
296.111
296.567
297.005
297.431
297.855
298.291
298.751
299.25
299.789
300.366
300.968
301.614
302.47
303.945
306.334
288.608
289.387
289.971
290.388
290.714
291.007
291.291
291.582
291.895
292.245
292.642
293.074
293.494
293.841
294.102
294.318
294.544
294.822
295.173
295.603
296.089
296.584
297.074
297.557
298.042
298.535
299.046
299.578
300.131
300.696
301.273
301.897
302.731
304.15
306.406
288.538
289.215
289.749
290.14
290.438
290.699
290.95
291.204
291.47
291.761
292.095
292.489
292.948
293.44
293.878
294.196
294.449
294.704
295.02
295.436
295.945
296.498
297.042
297.559
298.073
298.6
299.142
299.698
300.261
300.825
301.396
302.013
302.834
304.218
306.426
288.521
289.191
289.731
290.125
290.423
290.683
290.932
291.182
291.44
291.715
292.018
292.359
292.742
293.16
293.594
294
294.312
294.568
294.837
295.185
295.652
296.223
296.845
297.468
298.053
298.598
299.149
299.711
300.276
300.84
301.41
302.03
302.849
304.221
306.424
288.519
289.189
289.73
290.124
290.423
290.682
290.93
291.179
291.437
291.713
292.019
292.368
292.76
293.172
293.58
293.954
294.261
294.502
294.723
294.981
295.331
295.808
296.406
297.082
297.785
298.474
299.115
299.702
300.273
300.839
301.41
302.029
302.847
304.219
306.411
288.526
289.211
289.76
290.157
290.455
290.713
290.96
291.211
291.475
291.765
292.098
292.49
292.927
293.353
293.723
294.04
294.304
294.521
294.714
294.91
295.145
295.467
295.918
296.502
297.19
297.932
298.679
299.41
300.094
300.74
301.368
302.019
302.845
304.21
306.401
288.555
289.285
289.852
290.247
290.542
290.801
291.051
291.308
291.583
291.896
292.266
292.713
293.22
293.69
294.031
294.272
294.468
294.64
294.798
294.954
295.128
295.344
295.638
296.05
296.595
297.256
297.994
298.764
299.528
300.264
300.979
301.717
302.628
304.051
306.347
288.581
289.343
289.923
290.321
290.618
290.879
291.131
291.388
291.661
291.967
292.334
292.781
293.301
293.819
294.232
294.5
294.675
294.822
294.96
295.092
295.224
295.379
295.588
295.87
296.248
296.754
297.383
298.107
298.884
299.674
300.453
301.245
302.208
303.73
306.229
288.59
289.361
289.945
290.344
290.641
290.902
291.151
291.404
291.668
291.953
292.281
292.675
293.155
293.703
294.218
294.596
294.841
295.014
295.157
295.282
295.4
295.522
295.666
295.867
296.157
296.537
297.037
297.668
298.408
299.216
300.039
300.865
301.85
303.426
306.108
288.59
289.366
289.95
290.35
290.645
290.901
291.149
291.388
291.626
291.867
292.117
292.405
292.77
293.258
293.845
294.433
294.891
295.182
295.37
295.506
295.621
295.73
295.85
295.996
296.195
296.504
296.929
297.482
298.177
298.982
299.827
300.666
301.645
303.227
306.015
288.586
289.362
289.951
290.358
290.656
290.909
291.149
291.388
291.624
291.863
292.106
292.356
292.625
292.946
293.397
293.984
294.611
295.135
295.484
295.702
295.852
295.971
296.084
296.207
296.36
296.576
296.926
297.45
298.129
298.935
299.791
300.628
301.595
303.172
305.986
288.589
289.373
289.978
290.394
290.697
290.952
291.187
291.413
291.637
291.867
292.106
292.353
292.616
292.921
293.296
293.788
294.398
295.025
295.52
295.863
296.086
296.246
296.381
296.513
296.664
296.859
297.134
297.555
298.175
298.963
299.808
300.634
301.599
303.18
305.992
288.595
289.388
289.998
290.419
290.725
290.983
291.221
291.45
291.675
291.898
292.124
292.358
292.61
292.882
293.209
293.637
294.203
294.856
295.474
295.936
296.272
296.505
296.69
296.863
297.051
297.284
297.597
298.035
298.631
299.357
300.125
300.888
301.813
303.361
306.068
288.598
289.397
290.013
290.436
290.742
290.998
291.234
291.462
291.686
291.911
292.14
292.372
292.611
292.868
293.162
293.527
294.016
294.641
295.319
295.922
296.371
296.703
296.96
297.186
297.417
297.689
298.039
298.499
299.08
299.747
300.443
301.157
302.053
303.564
306.152
288.604
289.414
290.039
290.468
290.776
291.031
291.264
291.487
291.706
291.926
292.15
292.382
292.62
292.867
293.13
293.45
293.894
294.49
295.199
295.877
296.406
296.837
297.196
297.508
297.805
298.125
298.503
298.964
299.511
300.117
300.747
301.414
302.283
303.763
306.234
288.605
289.419
290.057
290.501
290.817
291.078
291.316
291.541
291.757
291.97
292.185
292.405
292.634
292.869
293.11
293.368
293.673
294.136
294.806
295.597
296.325
296.838
297.269
297.668
298.06
298.457
298.883
299.356
299.879
300.441
301.027
301.66
302.495
303.925
306.295
288.602
289.419
290.07
290.533
290.865
291.138
291.387
291.622
291.846
292.063
292.278
292.494
292.712
292.93
293.15
293.376
293.628
293.939
294.396
295.068
295.878
296.654
297.238
297.672
298.1
298.541
299.007
299.5
300.024
300.57
301.14
301.762
302.583
303.978
306.311
288.604
289.428
290.095
290.566
290.907
291.191
291.453
291.702
291.943
292.18
292.416
292.655
292.89
293.112
293.318
293.512
293.704
293.918
294.19
294.588
295.2
296.008
296.837
297.547
298.077
298.537
299.006
299.504
300.028
300.575
301.145
301.766
302.585
303.978
306.308
288.605
289.444
290.126
290.606
290.952
291.242
291.512
291.77
292.02
292.27
292.524
292.784
293.045
293.292
293.511
293.701
293.872
294.037
294.211
294.425
294.743
295.264
296.017
296.873
297.683
298.37
298.954
299.489
300.019
300.568
301.139
301.758
302.566
303.937
306.269
288.615
289.479
290.176
290.657
291.004
291.299
291.574
291.839
292.098
292.362
292.635
292.92
293.208
293.483
293.726
293.931
294.105
294.253
294.388
294.525
294.707
294.979
295.409
296.059
296.859
297.667
298.413
299.108
299.761
300.38
300.992
301.64
302.471
303.861
306.239
288.627
289.526
290.243
290.728
291.079
291.38
291.662
291.935
292.206
292.483
292.772
293.075
293.382
293.675
293.936
294.156
294.339
294.492
294.626
294.754
294.88
295.048
295.334
295.797
296.477
297.307
298.158
298.949
299.664
300.327
300.967
301.632
302.473
303.868
306.244
288.659
289.618
290.359
290.846
291.201
291.511
291.803
292.091
292.382
292.683
293.005
293.343
293.679
293.988
294.251
294.467
294.638
294.781
294.912
295.041
295.179
295.341
295.568
295.966
296.615
297.456
298.315
299.09
299.78
300.422
301.053
301.723
302.593
304.026
306.335
288.708
289.734
290.485
290.969
291.326
291.642
291.946
292.247
292.554
292.883
293.247
293.641
294.03
294.377
294.657
294.87
295.033
295.169
295.292
295.414
295.556
295.756
296.071
296.544
297.197
297.949
298.678
299.338
299.955
300.56
301.18
301.862
302.767
304.232
306.45
288.76
289.846
290.612
291.091
291.446
291.763
292.063
292.354
292.65
292.972
293.344
293.769
294.22
294.643
294.985
295.248
295.459
295.631
295.774
295.905
296.057
296.277
296.619
297.107
297.708
298.341
298.956
299.547
300.127
300.709
301.318
302.005
302.937
304.416
306.542
288.81
289.963
290.757
291.248
291.61
291.931
292.227
292.503
292.773
293.066
293.417
293.84
294.312
294.781
295.194
295.551
295.859
296.112
296.312
296.488
296.676
296.921
297.264
297.713
298.24
298.801
299.357
299.9
300.44
300.991
301.573
302.246
303.175
304.629
306.631
288.857
290.073
290.899
291.405
291.782
292.112
292.402
292.654
292.886
293.128
293.414
293.759
294.214
294.719
295.206
295.655
296.065
296.413
296.7
296.957
297.215