/*--------------------------------*- C++ -*----------------------------------*\
| =========                 |                                                 |
| \\      /  F ield         | OpenFOAM: The Open Source CFD Toolbox           |
|  \\    /   O peration     | Version:  2.0.x                                 |
|   \\  /    A nd           | Web:      www.OpenFOAM.org                      |
|    \\/     M anipulation  |                                                 |
\*---------------------------------------------------------------------------*/
FoamFile
{
    version     2.0;
    format      ascii;
    class       volVectorField;
    location    "400";
    object      U;
}
// * * * * * * * * * * * * * * * * * * * * * * * * * * * * * * * * * * * * * //

dimensions      [0 1 -1 0 0 0 0];

internalField   nonuniform List<vector> 
78750
(
(-0.0028048 0.0166875 0.0221725)
(-0.00958577 0.0162279 0.0359878)
(-0.0165795 0.0032089 0.0381266)
(-0.0209498 -0.0108159 0.0376751)
(-0.0218482 -0.0225668 0.0371832)
(-0.0211544 -0.0326556 0.0370476)
(-0.0164982 -0.0424196 0.0361293)
(-0.0100569 -0.0494948 0.0353008)
(-0.00225448 -0.0538025 0.0348303)
(0.00639961 -0.0560766 0.0345566)
(0.015302 -0.0568147 0.0344247)
(0.024327 -0.0563514 0.0343702)
(0.0330342 -0.0552475 0.0344523)
(0.0419051 -0.0532947 0.0345235)
(0.0500186 -0.0500676 0.0347813)
(0.0581417 -0.0513894 0.0336542)
(0.0652033 -0.0507387 0.0327952)
(0.0716668 -0.048386 0.0322294)
(0.0772642 -0.0446465 0.0320425)
(0.0817758 -0.0404274 0.0316155)
(0.0851782 -0.0369667 0.0315154)
(0.0880007 -0.0283228 0.0327278)
(0.0886946 -0.0246616 0.0334906)
(0.0889949 -0.0191603 0.0346894)
(0.0878631 -0.0137595 0.0354502)
(0.0854663 -0.00844484 0.0364597)
(0.0819481 -0.00326681 0.0365486)
(0.0768215 0.00204739 0.0366675)
(0.0704165 0.00820567 0.0367055)
(0.0630855 0.0131501 0.0372264)
(0.054175 0.01796 0.0378913)
(0.0438921 0.0227303 0.0388885)
(0.0320436 0.0269851 0.0404887)
(0.0193707 0.0321363 0.0409858)
(0.00586799 0.0323645 0.0254616)
(0.000322999 0.0196175 0.0159654)
(0.00131388 0.0241615 0.0277001)
(0.00321742 0.0111555 0.0300107)
(0.00718896 -0.0118021 0.0293532)
(0.0111293 -0.0340465 0.0282543)
(0.0183993 -0.0603084 0.0270695)
(0.0247421 -0.0855861 0.0248819)
(0.0308424 -0.101424 0.0233011)
(0.0366665 -0.110645 0.0221812)
(0.0426874 -0.11523 0.0214054)
(0.0476433 -0.116753 0.0209003)
(0.0539825 -0.114619 0.0205121)
(0.057865 -0.112668 0.0203772)
(0.062436 -0.109364 0.0202673)
(0.0666489 -0.104493 0.0202696)
(0.0696643 -0.0952037 0.0213858)
(0.0716748 -0.0866561 0.0221146)
(0.0730101 -0.0779969 0.0226296)
(0.0745242 -0.0683787 0.0232935)
(0.075115 -0.0585444 0.0239542)
(0.0751009 -0.0491281 0.0241702)
(0.0748537 -0.0393621 0.0243648)
(0.0741359 -0.0291408 0.0245658)
(0.0727457 -0.0186242 0.0248004)
(0.0707202 -0.00783459 0.0250376)
(0.0682524 0.00251688 0.0250229)
(0.0641082 0.0170903 0.0256056)
(0.0597264 0.0283819 0.0260759)
(0.055158 0.0371403 0.026626)
(0.0484425 0.04943 0.0274085)
(0.0414054 0.0612735 0.0286566)
(0.0329976 0.0730412 0.0303602)
(0.0231601 0.0856869 0.0320979)
(0.0122404 0.0980516 0.0311559)
(0.00350085 0.0889262 0.0215714)
(-0.000180899 -0.00479269 0.0113713)
(0.0025012 -0.0297111 0.0197496)
(0.00789726 -0.0655771 0.0210266)
(0.014802 -0.101258 0.0194774)
(0.0220862 -0.13033 0.0174393)
(0.0285601 -0.14897 0.0158462)
(0.0330275 -0.154118 0.0154919)
(0.0369497 -0.15516 0.0153772)
(0.0390996 -0.15447 0.0154423)
(0.0412947 -0.151987 0.0156307)
(0.0427614 -0.148135 0.0158566)
(0.043865 -0.143064 0.0161296)
(0.04485 -0.136477 0.0164715)
(0.0455726 -0.128881 0.0168518)
(0.0457826 -0.120271 0.0173079)
(0.0459196 -0.110167 0.0181071)
(0.0465795 -0.0991099 0.0192096)
(0.0470121 -0.0890967 0.019872)
(0.0460424 -0.0804299 0.0197566)
(0.0460541 -0.0706122 0.0198026)
(0.0455517 -0.0597506 0.0200169)
(0.0447289 -0.0480268 0.0203258)
(0.0439569 -0.0357729 0.0206837)
(0.0427533 -0.0235068 0.0208904)
(0.0414168 -0.0102428 0.0211044)
(0.0390159 0.00964029 0.0214727)
(0.0374174 0.0203666 0.0215621)
(0.0350563 0.0351746 0.0217777)
(0.0321129 0.0514674 0.0222253)
(0.0285281 0.0689697 0.0228692)
(0.023909 0.0872029 0.0238113)
(0.0185391 0.105599 0.0253943)
(0.0120265 0.123203 0.0274665)
(0.00558148 0.133748 0.025814)
(0.000942897 0.111529 0.0154828)
(0.000132933 -0.0144837 0.00775081)
(0.00323414 -0.0612169 0.0121455)
(0.0079403 -0.105594 0.0118317)
(0.0124917 -0.135427 0.0110118)
(0.0158236 -0.150278 0.0106915)
(0.0178544 -0.156937 0.010684)
(0.0192925 -0.16048 0.010756)
(0.0206241 -0.161674 0.0108496)
(0.0216491 -0.161093 0.0109053)
(0.0226705 -0.158816 0.011046)
(0.0235655 -0.155108 0.0113243)
(0.0243858 -0.150169 0.0117057)
(0.0251265 -0.144213 0.0121423)
(0.0258004 -0.137318 0.0126123)
(0.0264211 -0.129594 0.013104)
(0.0270224 -0.121042 0.0136283)
(0.0276212 -0.111198 0.0143214)
(0.0279281 -0.0997245 0.0153634)
(0.0286568 -0.0870553 0.0167316)
(0.0283874 -0.0745823 0.0177843)
(0.0280871 -0.0620883 0.0185668)
(0.0274537 -0.0495829 0.0190012)
(0.0262677 -0.0368025 0.0192123)
(0.0253359 -0.0230615 0.0195195)
(0.0238529 -0.00478307 0.0200474)
(0.0226635 0.00784283 0.0203831)
(0.021495 0.0207297 0.0208002)
(0.0200834 0.0387663 0.0214335)
(0.0183838 0.0574962 0.0217777)
(0.0159866 0.0774372 0.0220559)
(0.0135171 0.0990857 0.0228231)
(0.00988314 0.121255 0.0239323)
(0.00592584 0.139851 0.0248052)
(0.00205982 0.147131 0.0219854)
(-4.07956e-05 0.11176 0.0127648)
(0.000340834 -0.0317724 0.00584416)
(0.00297543 -0.0951971 0.00906954)
(0.00580534 -0.139586 0.0093795)
(0.00807756 -0.164482 0.00918621)
(0.00978337 -0.177113 0.00899599)
(0.0112514 -0.182821 0.00893286)
(0.0126307 -0.184646 0.00899605)
(0.0136879 -0.184257 0.0091387)
(0.0147139 -0.182044 0.00942892)
(0.0154954 -0.178336 0.00977885)
(0.0161373 -0.173322 0.0101482)
(0.0166515 -0.167151 0.0105694)
(0.0170512 -0.159911 0.011087)
(0.0173347 -0.151677 0.011703)
(0.0174846 -0.14251 0.012366)
(0.0175104 -0.132421 0.013025)
(0.0174007 -0.121562 0.0136196)
(0.0172531 -0.110028 0.0141152)
(0.0170698 -0.0977606 0.0145269)
(0.0169396 -0.084531 0.0149435)
(0.0166267 -0.0703332 0.0154414)
(0.016377 -0.0555076 0.0161111)
(0.0159729 -0.0409257 0.016652)
(0.0154034 -0.0266178 0.0169254)
(0.0150187 -0.0119587 0.0170056)
(0.0145622 0.00433135 0.017045)
(0.0139877 0.0161469 0.0172173)
(0.0131959 0.0334516 0.0179007)
(0.0122537 0.0542171 0.0190827)
(0.0109757 0.0770614 0.0203432)
(0.00886057 0.101818 0.0212832)
(0.0064338 0.127124 0.02215)
(0.00365001 0.146207 0.0223237)
(0.00110073 0.151219 0.0190896)
(-0.000192058 0.1084 0.010421)
(0.000269533 -0.0413208 0.00443527)
(0.00164866 -0.10853 0.00640072)
(0.00298309 -0.149565 0.00616229)
(0.00411826 -0.170692 0.00575919)
(0.00493986 -0.180755 0.00557468)
(0.00555535 -0.185412 0.0055745)
(0.00607805 -0.187043 0.00569845)
(0.00651152 -0.18657 0.00589695)
(0.00689354 -0.184316 0.00619675)
(0.00722189 -0.180565 0.00660165)
(0.00751509 -0.175512 0.00712415)
(0.00777086 -0.169306 0.00775237)
(0.00798826 -0.162037 0.00846727)
(0.00817164 -0.153777 0.00926707)
(0.00832704 -0.14459 0.0101657)
(0.0084594 -0.13453 0.0111646)
(0.00857187 -0.123627 0.012243)
(0.00865935 -0.111929 0.0133492)
(0.00871648 -0.0995585 0.0144051)
(0.00873711 -0.0866654 0.0153261)
(0.0087583 -0.0733153 0.0160529)
(0.00878682 -0.0595464 0.0165632)
(0.00883496 -0.0455586 0.0168874)
(0.00883796 -0.0316162 0.0170501)
(0.00893158 -0.0175103 0.0170624)
(0.00914401 -0.00159291 0.016965)
(0.00914185 0.0115005 0.0169541)
(0.00891619 0.0299535 0.0172448)
(0.00871811 0.0521752 0.0178703)
(0.00815994 0.0769238 0.0187507)
(0.00695857 0.103015 0.0195913)
(0.00498671 0.130745 0.0201139)
(0.00281832 0.149607 0.0195116)
(0.000871904 0.152368 0.0165833)
(-0.000118371 0.103827 0.00846429)
(0.000184636 -0.0484764 0.0032828)
(0.00102351 -0.119864 0.00474439)
(0.00185562 -0.161415 0.00470809)
(0.00264726 -0.182133 0.00457073)
(0.00332888 -0.191854 0.00451941)
(0.00391269 -0.196394 0.00453035)
(0.00443325 -0.197962 0.00461396)
(0.00486576 -0.197456 0.00477184)
(0.00524605 -0.195254 0.0050219)
(0.0055641 -0.191627 0.00535477)
(0.00584843 -0.186723 0.00577383)
(0.00610746 -0.180645 0.00628782)
(0.00634374 -0.173501 0.00690368)
(0.00656324 -0.165378 0.00762635)
(0.00677109 -0.156349 0.00845406)
(0.00697222 -0.146473 0.00938073)
(0.00717563 -0.13579 0.0103985)
(0.00738768 -0.124305 0.0114943)
(0.00761069 -0.112 0.0126395)
(0.00783682 -0.0988873 0.013781)
(0.00804719 -0.0850885 0.0148442)
(0.00822664 -0.0708347 0.0157434)
(0.00836109 -0.0564763 0.0164005)
(0.00843469 -0.0425399 0.0167845)
(0.00852666 -0.0293921 0.016925)
(0.00869763 -0.0147378 0.0169308)
(0.00868077 0.00236614 0.0168107)
(0.0085263 0.0174765 0.016817)
(0.00842286 0.0403099 0.0171925)
(0.00795453 0.0686404 0.0179294)
(0.00687832 0.101195 0.0188165)
(0.00499903 0.131884 0.019028)
(0.00295177 0.151477 0.0180883)
(0.00113551 0.15329 0.0152137)
(5.16022e-05 0.102269 0.00762814)
(7.72527e-05 -0.0518195 0.00243966)
(0.000424297 -0.123157 0.0031607)
(0.000844143 -0.163207 0.00272707)
(0.00135187 -0.183257 0.00237756)
(0.00183946 -0.192904 0.00224623)
(0.00226183 -0.197441 0.00225384)
(0.00260889 -0.199025 0.00236058)
(0.00288936 -0.198536 0.00254929)
(0.00314215 -0.196364 0.00283986)
(0.0033666 -0.192775 0.00323272)
(0.00356683 -0.187953 0.00372057)
(0.0037511 -0.182035 0.00429895)
(0.00392908 -0.175114 0.00497405)
(0.00410367 -0.167249 0.00575614)
(0.00428022 -0.158499 0.00665466)
(0.00446524 -0.148917 0.00767503)
(0.00465888 -0.138561 0.00881477)
(0.00486906 -0.127479 0.0100607)
(0.00510781 -0.11569 0.0113853)
(0.00537674 -0.103184 0.0127452)
(0.00567915 -0.0899638 0.0140769)
(0.00600503 -0.0761063 0.0152883)
(0.00633498 -0.0618976 0.0162683)
(0.00661285 -0.047943 0.0169198)
(0.00679318 -0.0347219 0.0172258)
(0.00692091 -0.0200322 0.0172357)
(0.00714772 -0.00273856 0.016938)
(0.00712342 0.0133055 0.0166211)
(0.00695708 0.0374527 0.016433)
(0.00674752 0.0676319 0.016644)
(0.00600147 0.101371 0.0172603)
(0.00436532 0.134855 0.0172977)
(0.00259789 0.154558 0.0162369)
(0.000980585 0.155195 0.01351)
(2.3116e-05 0.101563 0.00651038)
(-2.46277e-06 -0.0535076 0.00170581)
(0.000174522 -0.126319 0.00199077)
(0.000585694 -0.167562 0.00155033)
(0.00117789 -0.188361 0.00126109)
(0.00179752 -0.198447 0.00115275)
(0.00238418 -0.203375 0.00115042)
(0.00291959 -0.20535 0.00122349)
(0.00337963 -0.205263 0.00135709)
(0.00379863 -0.203562 0.00155676)
(0.00417292 -0.200456 0.00182929)
(0.00450728 -0.196124 0.00218072)
(0.00480711 -0.190682 0.00261484)
(0.00507751 -0.18422 0.00313717)
(0.00532508 -0.176807 0.00375879)
(0.00555437 -0.168507 0.00449537)
(0.0057717 -0.159374 0.00536582)
(0.00598297 -0.14945 0.00639013)
(0.00619145 -0.138767 0.007586)
(0.00639917 -0.12734 0.00896239)
(0.00660828 -0.115163 0.0105121)
(0.00682351 -0.102225 0.0121992)
(0.00704901 -0.0885632 0.0139448)
(0.00725717 -0.0743051 0.0156234)
(0.00741404 -0.0597426 0.017073)
(0.00746375 -0.045372 0.0181439)
(0.00749907 -0.031453 0.0187924)
(0.00760552 -0.0150202 0.0189846)
(0.00742103 0.00557203 0.018613)
(0.00712363 0.0261542 0.0180395)
(0.00689312 0.059033 0.0174056)
(0.00615027 0.0983526 0.0170795)
(0.00468155 0.135075 0.0165959)
(0.00295593 0.156171 0.0152508)
(0.00137819 0.15662 0.0126121)
(0.000179822 0.101797 0.00625309)
(7.663e-06 -0.0540365 0.00104673)
(0.000249433 -0.126954 0.000787234)
(0.000837155 -0.168405 0.000153083)
(0.00166492 -0.189414 -0.000210786)
(0.00253923 -0.19961 -0.000363005)
(0.00336732 -0.204598 -0.000409123)
(0.00412011 -0.206651 -0.000392174)
(0.00476108 -0.206645 -0.000330584)
(0.00532256 -0.205075 -0.000224808)
(0.00582148 -0.202052 -5.75898e-05)
(0.00624546 -0.197804 0.000175694)
(0.00661542 -0.192456 0.000475698)
(0.00693364 -0.186105 0.000844027)
(0.00720565 -0.178826 0.00128582)
(0.00743953 -0.170695 0.0018087)
(0.00764175 -0.161769 0.0024333)
(0.00781278 -0.15209 0.00319481)
(0.00795287 -0.141694 0.00413187)
(0.00806359 -0.130606 0.00528257)
(0.00814684 -0.118828 0.00667794)
(0.00821823 -0.106375 0.00830691)
(0.00827032 -0.093223 0.010154)
(0.00827975 -0.079337 0.0121984)
(0.00823281 -0.0649807 0.0142793)
(0.00811464 -0.0508272 0.0161299)
(0.00796597 -0.0370908 0.0176658)
(0.00776716 -0.020254 0.0188616)
(0.00744141 0.0018322 0.0193637)
(0.00713643 0.0230957 0.0190604)
(0.00674773 0.0571124 0.0179749)
(0.00618208 0.0981044 0.0169411)
(0.00489239 0.137225 0.0160999)
(0.00318227 0.159787 0.0147435)
(0.00157177 0.160111 0.0122747)
(0.000279044 0.103584 0.00614504)
(-5.23096e-05 -0.0547565 0.000511121)
(0.000255636 -0.129724 -8.1784e-05)
(0.00111388 -0.173158 -0.000673636)
(0.00229788 -0.195337 -0.000988253)
(0.00356607 -0.205998 -0.00115804)
(0.00481654 -0.211139 -0.00126442)
(0.00599514 -0.213256 -0.00133768)
(0.00707807 -0.213322 -0.00138521)
(0.00800995 -0.211955 -0.00142685)
(0.00887623 -0.209136 -0.00146046)
(0.00960908 -0.20506 -0.00145867)
(0.0102532 -0.199864 -0.00141806)
(0.0108036 -0.193647 -0.00133805)
(0.0112642 -0.186497 -0.00121939)
(0.0116567 -0.178516 -0.00106096)
(0.011986 -0.169732 -0.000830498)
(0.0122338 -0.160142 -0.000474361)
(0.0123867 -0.149777 5.931e-05)
(0.0124387 -0.138688 0.000827523)
(0.0123968 -0.12691 0.00189174)
(0.0122565 -0.114392 0.00333577)
(0.0120237 -0.101082 0.00520714)
(0.011726 -0.0870629 0.00745885)
(0.0113527 -0.0725534 0.00996526)
(0.0109307 -0.0581281 0.0123259)
(0.0104004 -0.0442403 0.014851)
(0.00980795 -0.027576 0.0172029)
(0.00911 -0.00586171 0.0192594)
(0.0085341 0.0147944 0.0201459)
(0.00789159 0.0499034 0.0197798)
(0.00707107 0.0943083 0.0182984)
(0.00551309 0.138302 0.0161395)
(0.00359909 0.163686 0.014082)
(0.00179261 0.164476 0.0114418)
(0.000337147 0.106649 0.00586463)
(4.27272e-05 -0.0554485 -0.000201891)
(0.000792741 -0.132377 -0.00109792)
(0.00216859 -0.177532 -0.00157785)
(0.00381828 -0.200568 -0.00182321)
(0.00552242 -0.211432 -0.00201284)
(0.00718081 -0.216441 -0.0021938)
(0.00881742 -0.218232 -0.00237651)
(0.0102248 -0.218 -0.00254601)
(0.0116034 -0.216196 -0.0027526)
(0.0127597 -0.213023 -0.00296685)
(0.0137763 -0.208657 -0.00318701)
(0.0146396 -0.203197 -0.00341181)
(0.0153602 -0.196716 -0.00363964)
(0.0159232 -0.189353 -0.00388357)
(0.0163785 -0.181347 -0.00421388)
(0.0166065 -0.172273 -0.00448512)
(0.0166465 -0.162154 -0.00459016)
(0.0165476 -0.151187 -0.00450538)
(0.0163064 -0.139525 -0.0041918)
(0.015942 -0.127267 -0.00359701)
(0.0154726 -0.114452 -0.00265671)
(0.0149152 -0.101077 -0.00130184)
(0.0142836 -0.087163 0.000522565)
(0.0135944 -0.0728922 0.00283556)
(0.0127901 -0.0587579 0.00575898)
(0.0120086 -0.0449126 0.00842573)
(0.0110907 -0.0282857 0.0115479)
(0.0100335 -0.00659962 0.0150521)
(0.00914226 0.0138592 0.0173478)
(0.00810294 0.0494767 0.0187344)
(0.00702059 0.0962502 0.0178163)
(0.00526622 0.142921 0.015753)
(0.00327125 0.169906 0.0136975)
(0.00147975 0.170609 0.0111128)
(0.000144269 0.110048 0.00558683)
(-3.87863e-07 -0.0582446 -0.000572212)
(0.00095854 -0.139507 -0.0013131)
(0.00262629 -0.186944 -0.00146291)
(0.00451494 -0.210733 -0.00158984)
(0.00644441 -0.221665 -0.00182265)
(0.00833246 -0.226481 -0.00212396)
(0.0102476 -0.227916 -0.00247035)
(0.0119043 -0.227324 -0.0027852)
(0.0135683 -0.225007 -0.00316526)
(0.0149703 -0.221218 -0.00356675)
(0.0161976 -0.21618 -0.00399543)
(0.0172095 -0.210057 -0.0044587)
(0.0180002 -0.202962 -0.00495518)
(0.0186096 -0.194813 -0.00544574)
(0.0189194 -0.185195 -0.00577091)
(0.0190296 -0.174702 -0.00601065)
(0.0189523 -0.163661 -0.00618786)
(0.0186933 -0.152102 -0.00625318)
(0.0182845 -0.140034 -0.00614874)
(0.0177367 -0.127483 -0.00580626)
(0.0170629 -0.114461 -0.00514965)
(0.0162821 -0.10096 -0.00410312)
(0.0154168 -0.0869992 -0.00261621)
(0.0144833 -0.0727359 -0.000724775)
(0.0134942 -0.0585517 0.00134248)
(0.0124341 -0.0444118 0.00361302)
(0.0112808 -0.0281255 0.00655042)
(0.00993479 -0.00711803 0.0105015)
(0.00877851 0.0131749 0.0138723)
(0.00747585 0.0483575 0.0174303)
(0.00636812 0.0974847 0.0181958)
(0.00484652 0.147092 0.0158647)
(0.00305303 0.175387 0.0131216)
(0.00150326 0.175632 0.0102921)
(0.000219372 0.112095 0.00482991)
(0.000135133 -0.0609605 -0.00103708)
(0.00155519 -0.146313 -0.00148864)
(0.00356235 -0.195555 -0.00123306)
(0.00563609 -0.219597 -0.00117803)
(0.00767062 -0.230253 -0.00138137)
(0.00963916 -0.234604 -0.0017383)
(0.0116618 -0.235409 -0.00219933)
(0.0134097 -0.234186 -0.00263175)
(0.0151915 -0.231027 -0.00317098)
(0.01671 -0.226266 -0.0037622)
(0.0180565 -0.220128 -0.00441477)
(0.0191947 -0.212798 -0.00514553)
(0.0200262 -0.204555 -0.00597422)
(0.0206038 -0.195259 -0.0069744)
(0.0209254 -0.184957 -0.00808146)
(0.0210894 -0.173933 -0.00913862)
(0.0210361 -0.162288 -0.0101969)
(0.0207896 -0.150037 -0.0111815)
(0.020348 -0.137227 -0.0120087)
(0.0197056 -0.123954 -0.0125759)
(0.0188803 -0.110347 -0.0127747)
(0.0179183 -0.0965042 -0.0125042)
(0.0168723 -0.0824917 -0.011693)
(0.0157866 -0.0684083 -0.0103395)
(0.0146713 -0.0543819 -0.00852804)
(0.0135148 -0.0401355 -0.00631606)
(0.0122283 -0.0234824 -0.00313512)
(0.0106928 -0.00263545 0.00149792)
(0.00944057 0.0162738 0.00507703)
(0.00791699 0.0501709 0.00984154)
(0.0066584 0.0984472 0.013779)
(0.00525962 0.149861 0.0145572)
(0.00341432 0.180549 0.0128258)
(0.00168129 0.18137 0.0101377)
(0.000292427 0.11594 0.0047896)
(0.000164385 -0.0668345 -0.000942049)
(0.0017089 -0.157882 -0.000637007)
(0.00364888 -0.208132 5.24256e-05)
(0.00551186 -0.231509 0.00023446)
(0.00731015 -0.241413 3.11168e-05)
(0.00907381 -0.245111 -0.000374976)
(0.0109113 -0.245256 -0.000904698)
(0.012551 -0.243329 -0.00142439)
(0.0142039 -0.2393 -0.00206906)
(0.0156588 -0.233589 -0.00280988)
(0.0169668 -0.22641 -0.00367738)
(0.018147 -0.217875 -0.00468971)
(0.0188557 -0.207926 -0.00582329)
(0.0197536 -0.196979 -0.00719597)
(0.0201679 -0.185477 -0.00866882)
(0.0203977 -0.173306 -0.0103651)
(0.0203727 -0.160359 -0.0121911)
(0.0200841 -0.146745 -0.0140395)
(0.0195452 -0.132588 -0.0157402)
(0.0187755 -0.118101 -0.0171221)
(0.0178173 -0.103653 -0.0180735)
(0.0167392 -0.0894728 -0.0185151)
(0.0156204 -0.0755786 -0.0183991)
(0.014525 -0.0619058 -0.0177421)
(0.0134785 -0.0482368 -0.0165862)
(0.0124792 -0.0339156 -0.0148973)
(0.0114599 -0.0173192 -0.0122275)
(0.0104507 0.00259285 -0.00755889)
(0.00951727 0.0207413 -0.00270071)
(0.00806736 0.0533037 0.00488202)
(0.00644914 0.101436 0.0111611)
(0.0043822 0.15543 0.0128086)
(0.00239559 0.188119 0.0114757)
(0.000801582 0.188696 0.00853224)
(-0.000198399 0.118612 0.00289218)
(0.000233356 -0.0719304 -0.000617244)
(0.00165318 -0.166655 0.000421181)
(0.00314794 -0.216762 0.00141373)
(0.00442824 -0.239288 0.00176244)
(0.00563785 -0.248452 0.00166732)
(0.00692725 -0.251525 0.00135048)
(0.00815481 -0.251208 0.000983775)
(0.00944244 -0.248395 0.000502494)
(0.0105915 -0.24352 -9.23187e-05)
(0.0117041 -0.236856 -0.000901639)
(0.0127041 -0.228649 -0.00195068)
(0.0134565 -0.219106 -0.00326607)
(0.0145715 -0.208401 -0.00507101)
(0.0149996 -0.19675 -0.00698784)
(0.0154821 -0.183954 -0.00920112)
(0.0157031 -0.170078 -0.0116946)
(0.0156164 -0.155331 -0.0143945)
(0.0152511 -0.140011 -0.0171242)
(0.0146535 -0.12438 -0.0196196)
(0.0138764 -0.108655 -0.0215909)
(0.0129753 -0.0934802 -0.0229454)
(0.0120212 -0.0792604 -0.0237116)
(0.0110806 -0.0659127 -0.0239229)
(0.0101981 -0.0531679 -0.0236418)
(0.00940166 -0.0405973 -0.0228871)
(0.00869423 -0.0274703 -0.0215437)
(0.00812599 -0.0122522 -0.0190661)
(0.00760765 0.00676766 -0.0151812)
(0.00708643 0.0266782 -0.0105041)
(0.00601348 0.0613677 -0.00249864)
(0.00439124 0.110807 0.00566194)
(0.00230811 0.163903 0.00919675)
(0.000710401 0.194042 0.00868708)
(-0.000283306 0.192634 0.00626645)
(-0.000405868 0.118071 0.0018542)
(0.000277027 -0.0778086 0.00015606)
(0.00113528 -0.175313 0.00193826)
(0.00183322 -0.224222 0.00299795)
(0.00239631 -0.245191 0.00331621)
(0.00292107 -0.253733 0.00331737)
(0.00354188 -0.25647 0.00313662)
(0.00423035 -0.255711 0.00282945)
(0.00495041 -0.252273 0.00237131)
(0.00582316 -0.246621 0.00163829)
(0.00660018 -0.239209 0.000699773)
(0.00724933 -0.230287 -0.000293433)
(0.00797167 -0.22003 -0.00137679)
(0.00834075 -0.208489 -0.0025277)
(0.00875837 -0.195465 -0.00408119)
(0.00892567 -0.181005 -0.00623511)
(0.00882809 -0.165261 -0.00906902)
(0.00854588 -0.14861 -0.0124965)
(0.00809166 -0.131651 -0.0162105)
(0.00750922 -0.114944 -0.019736)
(0.00688702 -0.0987724 -0.0225662)
(0.00629103 -0.0835876 -0.0244835)
(0.00573122 -0.069836 -0.0256352)
(0.00524441 -0.0572283 -0.0261452)
(0.00483997 -0.0453702 -0.0261617)
(0.0045263 -0.0338007 -0.0257841)
(0.00430819 -0.02179 -0.0250132)
(0.00417915 -0.00766255 -0.0233923)
(0.00416493 0.0102257 -0.0203941)
(0.0040071 0.0317942 -0.0159676)
(0.00337283 0.0676192 -0.00817358)
(0.00230309 0.117246 0.000682646)
(0.000862392 0.169141 0.00593439)
(-9.7562e-05 0.196944 0.00641483)
(-0.000600289 0.192561 0.0038846)
(-0.00038661 0.114604 0.000162124)
(0.000129051 -0.0802635 0.000876551)
(0.000303298 -0.176779 0.00257085)
(0.000262143 -0.224764 0.00349248)
(0.000161071 -0.245545 0.00387224)
(9.10406e-05 -0.254026 0.00400198)
(6.4667e-05 -0.256715 0.00401484)
(0.000105798 -0.255898 0.00397684)
(0.00025917 -0.252392 0.00393127)
(0.000302317 -0.246584 0.00409812)
(0.000493258 -0.238786 0.00425995)
(0.000812198 -0.229146 0.0042202)
(0.00102817 -0.217787 0.00384175)
(0.00119963 -0.204839 0.00295115)
(0.00134573 -0.190443 0.00140959)
(0.00146524 -0.174682 -0.00089099)
(0.00158384 -0.157698 -0.00404105)
(0.00168254 -0.139895 -0.0080141)
(0.00172768 -0.12205 -0.0125593)
(0.00171764 -0.105085 -0.0172349)
(0.00162951 -0.0894786 -0.0213777)
(0.00153502 -0.0749748 -0.0241182)
(0.00143128 -0.062229 -0.0257888)
(0.0013897 -0.0507747 -0.0266153)
(0.00141413 -0.0401167 -0.0268309)
(0.00152037 -0.0298046 -0.0266061)
(0.00170339 -0.0191521 -0.0260242)
(0.00199129 -0.00637889 -0.024726)
(0.00233439 0.010749 -0.0223399)
(0.00250701 0.0340362 -0.0183176)
(0.00210973 0.0715935 -0.0110613)
(0.00119478 0.122174 -0.00221035)
(6.05011e-05 0.172856 0.00334321)
(-0.000493936 0.197296 0.00354098)
(-0.000685313 0.192057 0.00248784)
(-0.000297045 0.111505 -0.000505654)
(-5.30362e-05 -0.08028 0.00150626)
(-0.00058618 -0.176573 0.00350747)
(-0.00119745 -0.224276 0.00451383)
(-0.00162406 -0.244899 0.00501283)
(-0.00201182 -0.253347 0.00536662)
(-0.00234702 -0.255884 0.00565053)
(-0.00258322 -0.255068 0.00600177)
(-0.00274451 -0.25151 0.00628478)
(-0.00268337 -0.245637 0.00623596)
(-0.00267536 -0.237716 0.00608583)
(-0.00258508 -0.227983 0.00583879)
(-0.00238231 -0.216611 0.00541439)
(-0.00210107 -0.203755 0.00470083)
(-0.00174871 -0.189541 0.00356337)
(-0.00131739 -0.174038 0.00185959)
(-0.000791718 -0.157289 -0.000521941)
(-0.00016983 -0.139416 -0.00359532)
(0.000514406 -0.120748 -0.00718421)
(0.00116297 -0.101968 -0.0109207)
(0.00165093 -0.0842581 -0.0148944)
(0.00194973 -0.0690187 -0.0189813)
(0.00204364 -0.0563254 -0.0220672)
(0.00203407 -0.0453042 -0.0239403)
(0.00197899 -0.0353996 -0.0248924)
(0.00193413 -0.0260959 -0.0251613)
(0.00190093 -0.0165682 -0.0248938)
(0.00190444 -0.00475677 -0.0238463)
(0.00198374 0.0117314 -0.0218058)
(0.00202897 0.0371177 -0.0182155)
(0.00170299 0.0768101 -0.0121448)
(0.000797984 0.127765 -0.00456072)
(-8.76374e-06 0.175959 0.000940394)
(-0.000391031 0.197339 0.00258473)
(-0.000520287 0.189646 0.00151224)
(-0.000189277 0.10787 -0.000689286)
(-7.3648e-05 -0.0768648 0.00180789)
(-0.000953691 -0.171155 0.00332163)
(-0.00183516 -0.219697 0.00402189)
(-0.00230827 -0.24156 0.00445009)
(-0.002697 -0.251083 0.00492388)
(-0.00298066 -0.254649 0.00529356)
(-0.00323616 -0.254474 0.0056163)
(-0.00335687 -0.251385 0.00586375)
(-0.00345698 -0.24585 0.00610311)
(-0.00341268 -0.2382 0.00639864)
(-0.00326179 -0.228641 0.00673263)
(-0.00301515 -0.217342 0.00705683)
(-0.00266498 -0.204482 0.00728314)
(-0.00219985 -0.190225 0.00726831)
(-0.0016233 -0.174693 0.0068151)
(-0.000927482 -0.157984 0.00567364)
(-0.000109994 -0.140208 0.00358056)
(0.00084251 -0.12159 0.000334335)
(0.0019107 -0.102529 -0.00392933)
(0.00290474 -0.0835283 -0.00837754)
(0.00381935 -0.0654753 -0.0122897)
(0.00418657 -0.0500857 -0.0164143)
(0.00419941 -0.0379162 -0.01963)
(0.00397049 -0.0277712 -0.0216254)
(0.00357405 -0.018667 -0.0226235)
(0.00307671 -0.00956108 -0.0228034)
(0.00254621 0.0013194 -0.0220459)
(0.00203171 0.0161437 -0.0202191)
(0.00158661 0.0410651 -0.0166782)
(0.00135794 0.0801397 -0.0112239)
(0.00114464 0.130444 -0.00473306)
(0.00064644 0.17669 0.00040577)
(0.000482623 0.196657 0.00210913)
(0.000323855 0.188437 0.00177759)
(0.00015238 0.107644 0.000444981)
(-0.000194965 -0.0732048 0.00118127)
(-0.000874194 -0.166166 0.0016344)
(-0.00121428 -0.216675 0.00216523)
(-0.00145927 -0.240641 0.00323424)
(-0.00145933 -0.250856 0.00380804)
(-0.00142441 -0.254717 0.00414655)
(-0.00134455 -0.254917 0.00438579)
(-0.00124095 -0.252293 0.00468976)
(-0.0010346 -0.247257 0.00504326)
(-0.00075727 -0.240111 0.00544534)
(-0.000399332 -0.231101 0.0059096)
(4.5201e-05 -0.220412 0.00644987)
(0.000584643 -0.208194 0.00706345)
(0.00121719 -0.194581 0.00771036)
(0.00194119 -0.179678 0.00828351)
(0.00275868 -0.163529 0.00858584)
(0.00364537 -0.146129 0.00831055)
(0.00468666 -0.127594 0.00702473)
(0.00573847 -0.107852 0.00475961)
(0.00673034 -0.0871032 0.00127489)
(0.00750752 -0.0664366 -0.00372863)
(0.00821804 -0.047202 -0.00855509)
(0.00831898 -0.031281 -0.0130812)
(0.00788289 -0.0187945 -0.0166172)
(0.00716694 -0.00851681 -0.0189137)
(0.0063357 0.000832508 -0.0201598)
(0.00543415 0.0104472 -0.0202524)
(0.00431749 0.0244256 -0.0190014)
(0.00320085 0.0463298 -0.0160197)
(0.00247325 0.0817909 -0.0109561)
(0.00252582 0.130898 -0.00469911)
(0.00241268 0.177118 0.000565187)
(0.00192954 0.196952 0.0024547)
(0.0012789 0.18916 0.00239654)
(0.000487168 0.108902 0.00109225)
(-9.13121e-05 -0.0704532 0.000633224)
(-0.000258871 -0.164569 0.00107028)
(-6.67559e-05 -0.216387 0.00137595)
(0.000564527 -0.241256 0.00160401)
(0.00117504 -0.252524 0.00183931)
(0.00184576 -0.257265 0.00207218)
(0.00252436 -0.258096 0.00227679)
(0.00317735 -0.256122 0.00239337)
(0.003859 -0.251656 0.00242423)
(0.0045405 -0.245026 0.00238639)
(0.00524265 -0.236443 0.00229046)
(0.00595946 -0.226089 0.00215703)
(0.00668682 -0.214109 0.00202358)
(0.00741569 -0.200637 0.00194774)
(0.00812592 -0.185802 0.00199689)
(0.00880813 -0.169709 0.00220566)
(0.00943745 -0.152338 0.00244443)
(0.0100266 -0.133431 0.00258895)
(0.0104817 -0.113192 0.00279922)
(0.011097 -0.0919541 0.00245253)
(0.0117324 -0.0696405 0.00102875)
(0.0121134 -0.0469609 -0.00218572)
(0.0122092 -0.0259038 -0.00682375)
(0.0117332 -0.00879641 -0.0117389)
(0.0110508 0.00228007 -0.0150503)
(0.0101939 0.0119349 -0.0171973)
(0.009061 0.0230747 -0.0183187)
(0.00772653 0.0367602 -0.0182155)
(0.00625709 0.0560446 -0.0164711)
(0.00509803 0.0862146 -0.0123387)
(0.00466165 0.13124 -0.00592752)
(0.00433995 0.177599 0.000315325)
(0.00336226 0.200199 0.00308849)
(0.00214954 0.194727 0.00354982)
(0.000549752 0.115257 0.00203755)
(-7.63774e-06 -0.0703021 -1.61798e-05)
(0.000521315 -0.165532 -0.000373108)
(0.0014928 -0.219994 -0.000237175)
(0.00266636 -0.246801 0.000186617)
(0.00389067 -0.258758 0.00057054)
(0.0050611 -0.263646 0.000820748)
(0.0061825 -0.264465 0.000946316)
(0.00717415 -0.262555 0.000942786)
(0.00814561 -0.258025 0.000823006)
(0.00899963 -0.251256 0.000615565)
(0.00978829 -0.242454 0.000313996)
(0.0105019 -0.231772 -9.71027e-05)
(0.01114 -0.219303 -0.000632199)
(0.0117058 -0.205117 -0.00128246)
(0.0121623 -0.189298 -0.00198222)
(0.0125281 -0.171955 -0.00256135)
(0.0127641 -0.153136 -0.00266591)
(0.0128045 -0.133395 -0.0018741)
(0.0128997 -0.11288 -0.00142897)
(0.0129169 -0.0916093 -0.00132395)
(0.012955 -0.0693452 -0.00173615)
(0.0130519 -0.0458645 -0.00303147)
(0.0130457 -0.0222579 -0.00554391)
(0.0127447 -0.001586 -0.00916895)
(0.0122698 0.0115038 -0.0120974)
(0.0114907 0.0239715 -0.0147739)
(0.010483 0.0360765 -0.0166468)
(0.00932845 0.0498935 -0.0175125)
(0.00800614 0.06838 -0.0169828)
(0.00630928 0.0959103 -0.0141932)
(0.00508423 0.136303 -0.00830265)
(0.00433778 0.18249 -0.00170157)
(0.00301078 0.20705 0.00180691)
(0.00176276 0.202467 0.00290809)
(0.000376301 0.121764 0.00182518)
(0.000111548 -0.072868 -0.000697689)
(0.00111744 -0.171697 -0.000800574)
(0.00249373 -0.227568 -0.000273455)
(0.00388562 -0.254467 0.000194627)
(0.00520053 -0.266219 0.000478489)
(0.00644577 -0.270798 0.000630337)
(0.00765283 -0.271201 0.000692958)
(0.00868918 -0.268896 0.000676447)
(0.00967566 -0.263876 0.000584842)
(0.0105035 -0.256585 0.000430603)
(0.0112206 -0.247223 0.000196864)
(0.0118252 -0.235931 -0.000152104)
(0.0123058 -0.222785 -0.000666936)
(0.0127067 -0.2078 -0.00140309)
(0.0129226 -0.191066 -0.00236157)
(0.0131215 -0.17267 -0.00320921)
(0.013154 -0.15308 -0.00412357)
(0.0130944 -0.132456 -0.00522486)
(0.0129016 -0.111211 -0.00606039)
(0.0126529 -0.0894098 -0.00654687)
(0.0123644 -0.0667588 -0.00680898)
(0.0120553 -0.0429022 -0.0071859)
(0.0117628 -0.0184893 -0.00818267)
(0.0114596 0.00391791 -0.0100448)
(0.0111357 0.0189722 -0.0119779)
(0.0105618 0.0334833 -0.0141978)
(0.00979113 0.047199 -0.0160476)
(0.00886939 0.0621044 -0.017218)
(0.00783406 0.0812507 -0.0173216)
(0.00660897 0.108862 -0.0155528)
(0.00477516 0.148319 -0.0109208)
(0.00273591 0.192042 -0.004786)
(0.00138426 0.214599 -0.00101555)
(0.000332604 0.208873 0.000499835)
(-0.000397701 0.124816 -0.00019779)
(0.000131748 -0.0768597 -0.000604121)
(0.00123926 -0.178817 -0.000448056)
(0.00253463 -0.234859 -5.26446e-05)
(0.00372057 -0.261351 0.000295531)
(0.0048411 -0.272785 0.000544901)
(0.00591604 -0.277056 0.000697044)
(0.00699049 -0.277073 0.000768396)
(0.00793693 -0.274266 0.000763306)
(0.0088284 -0.268641 0.000678934)
(0.00958481 -0.260708 0.000515787)
(0.0102286 -0.250667 0.000242321)
(0.0108164 -0.238653 -0.000190709)
(0.0111214 -0.224854 -0.000829979)
(0.0113643 -0.209079 -0.0018303)
(0.0117192 -0.191498 -0.00314314)
(0.0116619 -0.17211 -0.00479631)
(0.0115861 -0.151102 -0.00662321)
(0.0113165 -0.129012 -0.00837189)
(0.010892 -0.106459 -0.00979798)
(0.0103584 -0.0836823 -0.0107509)
(0.00976688 -0.0603702 -0.0112276)
(0.00917705 -0.036224 -0.011373)
(0.00863396 -0.0122816 -0.0115807)
(0.00838805 0.00927117 -0.0121264)