/*--------------------------------*- C++ -*----------------------------------*\
| =========                 |                                                 |
| \\      /  F ield         | OpenFOAM: The Open Source CFD Toolbox           |
|  \\    /   O peration     | Version:  2.0.x                                 |
|   \\  /    A nd           | Web:      www.OpenFOAM.org                      |
|    \\/     M anipulation  |                                                 |
\*---------------------------------------------------------------------------*/
FoamFile
{
    version     2.0;
    format      ascii;
    class       volScalarField;
    location    "100";
    object      k;
}
// * * * * * * * * * * * * * * * * * * * * * * * * * * * * * * * * * * * * * //

dimensions      [0 2 -2 0 0 0 0];

internalField   nonuniform List<scalar> 
78750
(
9.35923e-07
1.2774e-05
2.53028e-05
3.66748e-05
4.53814e-05
5.12502e-05
6.07003e-05
6.59829e-05
6.91032e-05
7.01734e-05
7.1729e-05
7.14964e-05
7.11899e-05
7.07605e-05
7.01917e-05
6.96075e-05
6.9037e-05
6.84495e-05
6.78894e-05
6.72406e-05
6.66093e-05
6.59953e-05
6.55638e-05
6.55708e-05
6.55094e-05
6.55272e-05
6.5477e-05
6.56358e-05
6.62001e-05
6.61822e-05
6.62111e-05
6.6073e-05
6.48477e-05
5.66384e-05
3.00141e-05
8.92221e-06
4.36931e-05
7.42321e-05
9.56709e-05
0.000108514
0.000116562
0.00011432
0.000109968
0.00010477
9.9222e-05
9.36439e-05
8.85977e-05
8.42479e-05
8.07785e-05
7.87838e-05
7.70084e-05
7.53249e-05
7.36925e-05
7.21512e-05
7.07042e-05
6.93656e-05
6.8154e-05
6.71454e-05
6.63173e-05
6.56814e-05
6.52886e-05
6.50725e-05
6.49179e-05
6.49597e-05
6.52115e-05
6.53565e-05
6.55684e-05
6.54501e-05
6.99602e-05
0.000123929
4.41182e-05
8.96815e-05
0.000117215
0.00012778
0.000128661
0.000123371
0.000110327
9.29602e-05
7.48563e-05
5.96345e-05
4.90492e-05
4.27115e-05
3.99612e-05
3.96615e-05
4.14905e-05
4.6056e-05
5.11128e-05
5.56126e-05
5.9003e-05
6.12508e-05
6.25709e-05
6.32373e-05
6.35029e-05
6.35273e-05
6.34381e-05
6.31762e-05
6.29818e-05
6.29301e-05
6.31568e-05
6.37507e-05
6.4798e-05
6.60365e-05
7.34871e-05
0.000100081
0.000173508
6.77621e-05
0.000102584
0.000121223
0.000129802
0.00013064
0.000123343
0.000108262
8.94494e-05
7.11151e-05
5.62024e-05
4.58732e-05
3.99125e-05
3.80028e-05
3.82454e-05
4.01852e-05
4.30345e-05
4.61849e-05
4.9158e-05
5.17087e-05
5.37769e-05
5.54084e-05
5.66869e-05
5.7697e-05
5.85055e-05
5.91647e-05
5.97057e-05
6.02247e-05
6.08382e-05
6.17173e-05
6.30564e-05
6.53948e-05
7.12245e-05
8.63271e-05
0.000119119
0.000185158
7.31014e-05
0.000108523
0.000131394
0.00014353
0.000147053
0.000141726
0.000128382
0.000109879
8.96522e-05
7.08071e-05
5.54411e-05
4.45748e-05
3.81713e-05
3.58578e-05
3.56575e-05
3.70295e-05
3.92939e-05
4.18215e-05
4.42813e-05
4.65359e-05
4.85332e-05
5.02821e-05
5.18148e-05
5.31686e-05
5.43821e-05
5.5501e-05
5.6598e-05
5.77938e-05
5.93225e-05
6.16827e-05
6.5936e-05
7.50516e-05
9.51189e-05
0.000131729
0.000196816
7.22804e-05
0.000109116
0.000133349
0.000146957
0.000153327
0.000153362
0.000146636
0.000134373
0.000118336
0.000100552
8.29614e-05
6.71091e-05
5.40053e-05
4.40892e-05
3.72805e-05
3.31449e-05
3.11121e-05
3.07591e-05
3.14937e-05
3.2904e-05
3.47429e-05
3.68791e-05
3.92084e-05
4.16752e-05
4.42873e-05
4.70764e-05
5.01016e-05
5.34333e-05
5.71567e-05
6.14131e-05
6.84909e-05
8.16033e-05
0.000105566
0.000144248
0.000210676
7.12685e-05
0.000113242
0.000141099
0.00015627
0.000163788
0.00016462
0.000159358
0.000149486
0.000136714
0.00012252
0.00010811
9.44195e-05
8.21271e-05
7.15793e-05
6.2599e-05
5.48228e-05
4.81637e-05
4.26519e-05
3.82593e-05
3.49519e-05
3.26167e-05
3.11063e-05
3.03594e-05
3.0402e-05
3.11355e-05
3.27813e-05
3.53809e-05
3.93129e-05
4.50847e-05
5.36425e-05
6.53554e-05
8.21792e-05
0.000110297
0.000153825
0.000227535
7.22344e-05
0.000116372
0.000146081
0.000162452
0.000171088
0.000173305
0.000169355
0.00016057
0.000148818
0.000135844
0.000123031
0.000111285
0.000101077
9.2491e-05
8.51998e-05
7.87472e-05
7.29182e-05
6.76475e-05
6.28584e-05
5.84615e-05
5.4349e-05
5.0429e-05
4.66431e-05
4.29939e-05
3.96535e-05
3.69826e-05
3.57198e-05
3.67475e-05
4.12621e-05
5.02589e-05
6.48111e-05
8.55134e-05
0.000118928
0.000166983
0.000240722
7.33041e-05
0.000121242
0.000153542
0.000171162
0.000180576
0.000183768
0.000181139
0.000173884
0.000163663
0.000152065
0.000140432
0.000129721
0.000120442
0.000112672
0.000106113
0.000100364
9.52239e-05
9.06229e-05
8.64669e-05
8.26318e-05
7.89354e-05
7.52064e-05
7.12874e-05
6.70512e-05
6.2279e-05
5.67108e-05
5.06561e-05
4.58267e-05
4.53963e-05
5.14098e-05
6.75323e-05
9.40896e-05
0.000129424
0.000175715
0.000245298
7.39483e-05
0.000124833
0.000159412
0.000178186
0.000188226
0.000192106
0.000190294
0.000183983
0.00017482
0.000164341
0.000153809
0.000144139
0.000135812
0.000128885
0.000123013
0.000117837
0.000113225
0.000109123
0.000105446
0.000102087
9.89187e-05
9.58107e-05
9.26381e-05
8.92821e-05
8.53952e-05
8.03487e-05
7.37311e-05
6.63926e-05
6.04479e-05
5.99586e-05
6.82859e-05
9.40508e-05
0.000131941
0.00018406
0.000272906
7.5936e-05
0.000130352
0.000167085
0.000186766
0.000197103
0.000201163
0.000199626
0.000193729
0.000185106
0.000175258
0.000165396
0.0001564
0.000148712
0.000142357
0.000136944
0.000132153
0.000127909
0.00012416
0.000120824
0.000117803
0.000114988
0.000112268
0.000109545
0.00010671
0.000103536
9.96134e-05
9.42244e-05
8.71166e-05
7.968e-05
7.40212e-05
7.565e-05
9.35257e-05
0.000136086
0.000201302
0.000313623
7.83797e-05
0.000135438
0.000174222
0.00019487
0.000205367
0.000209498
0.000208197
0.000202701
0.000194588
0.000185282
0.000175922
0.00016735
0.000160017
0.000153974
0.000148801
0.000144199
0.000140142
0.000136572
0.000133407
0.000130549
0.000127882
0.000125283
0.00012263
0.000119833
0.000116696
0.000112733
0.00010715
9.95211e-05
9.15355e-05
8.48802e-05
8.45542e-05
9.62191e-05
0.000142944
0.000217586
0.000329256
8.08031e-05
0.000141223
0.000182097
0.000203389
0.0002138
0.000217483
0.00021591
0.000210395
0.00020252
0.000193638
0.000184777
0.000176653
0.000169657
0.000163857
0.000158894
0.000154493
0.000150625
0.000147238
0.000144253
0.000141576
0.000139092
0.00013667
0.000134159
0.000131399
0.00012805
0.00012336
0.000116359
0.000106761
9.66887e-05
9.10724e-05
9.38007e-05
0.000114241
0.000163669
0.000234758
0.000329482
8.29931e-05
0.000146976
0.000189743
0.000211596
0.000222023
0.000225421
0.000223749
0.000218369
0.000210811
0.00020235
0.000193917
0.000186126
0.000179304
0.000173543
0.000168656
0.000164399
0.000160685
0.000157468
0.000154682
0.000152254
0.000150094
0.000148096
0.000146137
0.00014401
0.00014129
0.000137257
0.000130858
0.000120844
0.000108333
0.000100635
0.000103132
0.000126539
0.00017485
0.000241344
0.000339328
8.64444e-05
0.00015361
0.000197527
0.000219464
0.000229653
0.000232637
0.000230425
0.000224801
0.000217295
0.00020911
0.000201073
0.000193687
0.000187164
0.000181543
0.000176778
0.000172701
0.000169185
0.000166192
0.000163668
0.000161552
0.00015977
0.000158242
0.000156836
0.000155358
0.000153498
0.000150742
0.000146238
0.000138487
0.00012646
0.000116031
0.000115266
0.000131513
0.000183369
0.000259968
0.000393023
9.17623e-05
0.000161129
0.000205577
0.000227372
0.000237302
0.00023996
0.00023735
0.000231517
0.000223996
0.000215921
0.000208048
0.000200828
0.000194438
0.000188896
0.000184135
0.000180086
0.000176688
0.000173885
0.000171624
0.000169857
0.000168515
0.000167493
0.000166688
0.000165917
0.000164894
0.000163133
0.000159846
0.000153778
0.000143276
0.000132405
0.000127689
0.000138965
0.000192775
0.000282855
0.000439558
9.93331e-05
0.000169301
0.000213263
0.000234433
0.000243876
0.000246101
0.000243121
0.000236772
0.00022905
0.000220988
0.000213245
0.000206179
0.00019994
0.000194528
0.000189891
0.000185973
0.00018273
0.000180139
0.000178181
0.000176838
0.000176051
0.000175656
0.000175665
0.000175785
0.000175662
0.000174815
0.000172051
0.000165939
0.000155181
0.0001442
0.000140519
0.000154799
0.000214346
0.000310509
0.000459778
0.000108774
0.000178096
0.000220867
0.000241257
0.000250263
0.000252191
0.000248969
0.000242188
0.000234201
0.000226003
0.000218198
0.000211089
0.000204812
0.000199368
0.000194721
0.000190833
0.000187688
0.000185293
0.000183673
0.000182868
0.000182861
0.000183563
0.000185032
0.000186475
0.000187231
0.000186911
0.000184368
0.000177287
0.000165102
0.000153613
0.000152568
0.000173491
0.00023645
0.000328228
0.000457433
0.0001191
0.000186588
0.000227626
0.000247108
0.000255625
0.000257212
0.000253744
0.000246654
0.000238229
0.000229804
0.000221906
0.000214768
0.00020849
0.000203061
0.000198451
0.000194629
0.000191598
0.000189399
0.000188124
0.000187876
0.000188699
0.000190914
0.000193693
0.000196539
0.000198722
0.000198754
0.00019657
0.000187872
0.000174137
0.000163069
0.000164547
0.000194869
0.000257742
0.000341699
0.000451988
0.000130406
0.000194995
0.000234046
0.000252607
0.000260687
0.000261988
0.000258265
0.000250885
0.000241995
0.000233279
0.00022522
0.00021799
0.000211652
0.000206182
0.000201546
0.00019772
0.000194728
0.000192648
0.000191613
0.00019193
0.000193916
0.000197337
0.000201777
0.000206554
0.000210887
0.000212244
0.000209142
0.000196839
0.00018064
0.00017035
0.000175836
0.000215472
0.00027846
0.000352574
0.000428339
0.000141418
0.000202518
0.000239537
0.000257259
0.000264984
0.000266065
0.0002621
0.00025452
0.00024542
0.000236448
0.000228279
0.000220998
0.000214617
0.000209108
0.000204435
0.000200579
0.000197574
0.000195542
0.000194701
0.000195375
0.000198184
0.000202951
0.00020939
0.000216741
0.000224033
0.000227899
0.000224465
0.000208939
0.00019105
0.000183092
0.000193398
0.000236298
0.000292414
0.000350043
0.00040132
0.00015129
0.000208976
0.000244153
0.000261255
0.000268839
0.000269916
0.00026597
0.000258384
0.000249183
0.000239927
0.000231566
0.000224162
0.000217672
0.00021206
0.000207278
0.000203296
0.000200148
0.000197977
0.000197084
0.000197986
0.000201357
0.000207513
0.0002165
0.000227216
0.000239366
0.000248305
0.000246221
0.000228448
0.000205398
0.000192132
0.000202065
0.000247192
0.000299132
0.000347982
0.000394045
0.000161994
0.000215019
0.000248404
0.00026503
0.000272507
0.000273533
0.000269402
0.000261633
0.00025225
0.000242778
0.000234236
0.000226766
0.000220217
0.000214537
0.000209665
0.000205559
0.000202247
0.000199884
0.000198861
0.000199933
0.000203664
0.000211057
0.000222611
0.000239371
0.000262437
0.000281681
0.000280863
0.000260624
0.000230671
0.000212511
0.000219854
0.000260833
0.000306324
0.000346819
0.000380614
0.000169811
0.000219041
0.000251101
0.000267479
0.000275081
0.000276397
0.000272519
0.000265019
0.000255807
0.000246384
0.000237716
0.000230091
0.000223369
0.000217493
0.000212391
0.000208
0.000204314
0.000201455
0.00019978
0.000200093
0.000201691
0.000208285
0.000221081
0.000242286
0.000271121
0.000303226
0.000313917
0.000293534
0.00024952
0.000224354
0.000234943
0.000273524
0.000311922
0.000343454
0.000359272
0.000176466
0.00022267
0.000254022
0.000270444
0.000278294
0.000279918
0.000276317
0.000268967
0.000259744
0.000250143
0.000241178
0.000233337
0.000226441
0.000220377
0.000215059
0.000210405
0.000206393
0.000203126
0.000200941
0.000200404
0.00020078
0.000204635
0.000215128
0.000235085
0.000269793
0.000315465
0.000347263
0.000340251
0.000296112
0.000250693
0.000248736
0.00028344
0.000317682
0.000337244
0.000335395
0.000181078
0.000224824
0.000255677
0.00027221
0.000280288
0.00028217
0.00027874
0.000271515
0.000262371
0.000252802
0.000243801
0.000235868
0.000228891
0.000222689
0.000217182
0.000212282
0.000207936
0.000204191
0.000201338
0.000200037
0.00019898
0.000200286
0.000206476
0.000223043
0.000256127
0.000305755
0.000354231
0.000370147
0.000341412
0.000293003
0.000274236
0.000292703
0.000317477
0.000326769
0.000315116
0.000183549
0.000226564
0.000257663
0.000274723
0.000283175
0.000285417
0.000282241
0.000275204
0.00026614
0.000256504
0.000247338
0.000239223
0.00023213
0.000225819
0.000220177
0.0002151
0.000210497
0.000206328
0.00020266
0.000199863
0.000198867
0.000198282
0.000201214
0.000211953
0.000239216
0.000285166
0.000337274
0.00036841
0.000363106
0.000329093
0.000303465
0.000305212
0.000317125
0.000322414
0.000314258
0.000185198
0.000227622
0.00025879
0.000276326
0.000284591
0.000286987
0.000284112
0.000277393
0.000268574
0.000259071
0.000249924
0.000241756
0.000234611
0.000228238
0.000222494
0.000217256
0.000212446
0.000208039
0.000204084
0.000200766
0.000198497
0.00019783
0.000198399
0.000205095
0.000227144
0.000272623
0.000327312
0.000366149
0.000371337
0.000352369
0.00032926
0.000320401
0.000321824
0.000324746
0.000320907
0.000184637
0.000226223
0.000260291
0.000279091
0.000287378
0.000289839
0.000287172
0.000280698
0.000272091
0.000262677
0.000253466
0.000245114
0.000237778
0.000231235
0.00022531
0.000219843
0.000214774
0.000210065
0.000205729
0.000201904
0.000198975
0.000197667
0.000197347
0.000202335
0.000221083
0.000264582
0.000324067
0.000368995
0.000382989
0.000364163
0.000344087
0.000332969
0.000329502
0.000326623
0.000316772
0.000183144
0.000225539
0.000257892
0.000278339
0.000287176
0.000290003
0.000288438
0.0002827
0.00027447
0.000265252
0.000256082
0.000247653
0.000240161
0.000233353
0.00022714
0.000221494
0.0002163
0.000211455
0.00020693
0.000202828
0.000199437
0.000197467
0.000196499
0.000198465
0.000208866
0.000238889
0.000292182
0.000350833
0.000378769
0.000378648
0.000358441
0.000339877
0.000330259
0.00032428
0.000299272
0.000181018
0.000224584
0.000258614
0.00027914
0.000289841
0.00029249
0.000290711
0.000285362
0.000277603
0.000268683
0.000259731
0.000251405
0.000243994
0.000237323
0.000231242
0.00022561
0.000220339
0.000215356
0.000210615
0.000206142
0.000202052
0.000198609
0.000196726
0.000196052
0.000199402
0.000212414
0.000247301
0.000301828
0.000349251
0.000370837
0.000368459
0.000356038
0.000342825
0.000325937
0.000299802
0.000181218
0.000224943
0.000258679
0.000278637
0.000289927
0.000293091
0.000292456
0.00028764
0.000280214
0.0002716
0.000262872
0.000254642
0.000247157
0.000240298
0.000233978
0.000228095
0.000222572
0.000217335
0.000212349
0.000207643
0.000203354
0.000199707
0.00019695
0.000196393
0.000199165
0.000207706
0.000224684
0.000259553
0.000304227
0.000340216
0.000358246
0.000354195
0.000345141
0.000328504
0.000313189
0.000181196
0.000224835
0.000258971
0.000279309
0.000290629
0.000294835
0.000294659
0.000289829
0.000282159
0.000273773
0.000265555
0.000257835
0.000250627
0.000243814
0.000237442
0.000231493
0.000225863
0.000220466
0.000215232
0.000210154
0.000205368
0.000201101
0.000197833
0.000196092
0.000198703
0.000210511
0.000229869
0.000255251
0.000286415
0.000318463
0.000343161
0.000349689
0.000346692
0.000334635
0.000313669
0.000177722
0.000223674
0.000258016
0.000279115
0.000290808
0.000295599
0.000296422
0.000292867
0.000285991
0.000277449
0.000268861
0.000260829
0.000253366
0.000246373
0.000239813
0.000233651
0.000227805
0.000222193
0.000216746
0.000211413
0.000206227
0.000201488
0.000197643
0.00019429
0.000193329
0.000199287
0.000223122
0.000255181
0.000284932
0.000311698
0.000333681
0.000343161
0.000342454
0.000331206
0.000304673
0.000177189
0.000224021
0.000259473
0.000278578
0.000289893
0.000296203
0.000297383
0.000294286
0.000287903
0.000279626
0.000271036
0.000263028
0.000255668
0.000248838
0.000242433
0.000236377
0.000230602
0.000225056
0.000219701
0.000214533
0.000209543
0.000204671
0.000199793
0.000194891
0.000190898
0.000191833
0.0002043
0.000234969
0.000270856
0.000301138
0.000324438
0.000337057
0.00033864
0.000330542
0.00030347
0.000174408
0.000221938
0.000259659
0.000279998
0.000291155
0.000297119
0.000298291
0.000295602
0.000289906
0.000282159
0.00027401
0.000266273
0.000258899
0.000251993
0.000245549
0.00023947
0.000233658
0.000228046
0.000222586
0.000217272
0.000212138
0.00020726
0.000202634
0.000197997
0.000193182
0.000190459
0.000193388
0.000213643
0.000249143
0.000284958
0.000313711
0.000330533
0.000334995
0.000330741
0.000309251
0.00017115
0.000221278
0.000258599
0.000280538
0.000292356
0.000298205
0.000298931
0.000296051
0.000290981
0.000283301
0.000275108
0.000267769
0.000260755
0.000254093
0.000247831
0.000241912
0.000236153
0.000230564
0.000225106
0.000219779
0.000214612
0.000209673
0.000204997
0.000200479
0.000196062
0.000192333
0.000192203
0.000202592
0.000230615
0.000266576
0.000300558
0.00032405
0.000334607
0.000331938
0.000320036
0.000167724
0.000220862
0.000259628
0.000282157
0.00029496
0.000300703
0.000300475
0.000296483
0.000291006
0.000283553
0.000275612
0.000268686
0.000262127
0.00025584
0.000249813
0.000244007
0.000238455
0.000233002
0.000227517
0.000222068
0.000216735
0.000211629
0.000206829
0.000202279
0.000198113
0.000195505
0.000195405
0.000201735
0.000224723
0.000256164
0.00029238
0.000319947
0.000331998
0.000331896
0.000328512
0.000166793
0.00022191
0.000261031
0.000283954
0.000297114
0.000303599
0.000303934
0.000299422
0.000292201
0.0002845
0.00027715
0.00027026
0.000263786
0.000257577
0.000251586
0.00024578
0.000240096
0.000234525
0.000229013
0.000223498
0.000218012
0.000212664
0.000207587
0.000202905
0.000198849
0.00019751
0.000200224
0.000207982
0.000226249
0.000257604
0.000292878
0.000321062
0.000332618
0.000334379
0.000338292
0.000167688
0.000221925
0.000262812
0.000286189
0.000299588
0.000306271
0.000306997
0.000303171
0.000296435
0.000288339
0.000280262
0.0002728
0.00026596
0.000259605
0.000253583
0.000247764
0.000242045
0.000236374
0.000230721
0.00022505
0.000219341
0.000213607
0.000207881
0.000202179
0.00019581
0.000193028
0.000199259
0.000214257
0.000233755
0.000258565
0.000290929
0.000318933
0.000332862
0.000338759
0.000342244
0.000168667
0.000223425
0.000264483
0.000288163
0.000301875
0.000308784
0.000309481
0.000305469
0.000298628
0.000290836
0.00028302
0.000275667
0.000268776
0.000262198
0.000255905
0.000249889
0.000244037
0.000238254
0.000232493
0.000226723
0.00022089
0.000214925
0.000208727
0.000201911
0.000194722
0.000190151
0.000195333
0.000212817
0.000235796
0.000261244
0.000293541
0.000322101
0.000337801
0.000342387
0.000341799
0.000168506
0.000224022
0.000266009
0.000290243
0.00030442
0.000311707
0.00031278
0.000308911
0.000301873
0.000293508
0.000285293
0.00027772
0.000270752
0.000264283
0.000258164
0.000252194
0.000246277
0.000240372
0.000234446
0.000228469
0.000222412
0.000216229
0.00020976
0.000202378
0.000194304
0.000188944
0.000195068
0.000216986
0.000247599
0.000275749
0.000298259
0.00032247
0.000335555
0.000337816
0.000328688
0.000169001
0.000224753
0.000266942
0.000291596
0.000305843
0.000313298
0.000314466
0.000310772
0.000304089
0.000296156
0.000288281
0.00028087
0.000273908
0.000267377
0.000261163
0.000255064
0.000249003
0.000242962
0.000236911
0.000230799
0.000224546
0.000218113
0.000211284
0.000203351
0.000194015
0.000187956
0.000190952
0.000212388
0.000243845
0.000275081
0.000307016
0.000327549
0.000335246
0.000333982
0.00032066
0.000169006
0.000225334
0.000268101
0.000293214
0.000308078
0.000316038
0.000317629
0.000314183
0.000307584
0.000299625
0.000291561
0.000283958
0.000276807
0.00027016
0.000263897
0.000257821
0.000251803
0.000245803
0.000239799
0.000233772
0.000227688
0.000221437
0.000214788
0.000207035
0.000197506
0.000188671
0.000188887
0.000205389
0.000235652
0.000270753
0.000303337
0.000324565
0.000332968
0.000332007
0.000317805
0.000168195
0.000226477
0.00026911
0.000294592
0.000309703
0.000317915
0.000319793
0.000316627
0.000310271
0.000302608
0.00029494
0.000287667
0.000280824
0.000274312
0.000268082
0.000262022
0.00025601
0.000250011
0.000244003
0.000237961
0.000231813
0.000225416
0.000218554
0.00021064
0.000200903
0.000190969
0.000188253
0.000200243
0.000227972
0.00026224
0.000296781
0.0003217
0.000333969
0.000333078
0.000316986
0.000165962
0.000226424
0.000270069
0.000296094
0.000311746
0.000320486
0.000322805
0.000320011
0.000313877
0.000306297
0.000298628
0.000291295
0.000284398
0.000277853
0.000271566
0.000265485
0.000259486
0.000253503
0.000247535
0.000241571
0.00023552
0.000229222
0.00022246
0.0002147
0.000205052
0.000194103
0.000188595
0.000196056
0.000222145
0.000255883
0.000291224
0.00031896
0.00033335
0.000332523
0.000317811
0.000164221
0.000225264
0.000270702
0.000297264
0.000313286
0.000322369
0.000325088
0.000322613
0.000316747
0.000309357
0.000301839
0.000294707
0.000287958
0.000281507
0.000275267
0.000269214
0.00026325
0.000257312
0.000251385
0.000245459
0.000239447
0.000233224
0.000226588
0.000219027
0.000209569
0.000197854
0.000188379
0.000189915
0.000213439
0.000247876
0.000284777
0.000315257
0.000331329
0.000334599
0.000336184
0.000163645
0.000225705
0.000271519
0.000298683
0.000315167
0.000324685
0.000327786
0.000325618
0.000319971
0.000312647
0.000305133
0.000298021
0.000291324
0.000284915
0.000278666
0.000272555
0.00026654
0.000260579
0.000254633
0.000248672
0.000242628
0.000236408
0.000229863
0.000222565
0.000213519
0.000201844
0.000189365
0.000184272
0.000198801
0.000231744
0.000272157
0.00030951
0.000331253
0.000337331
0.000350862
0.000164098
0.000226141
0.000272202
0.000299507
0.000316252
0.000326148
0.000329622
0.000328019
0.000322848
0.000315913
0.0003087
0.000301736
0.000295054
0.000288574
0.00028228
0.000276134
0.000270065
0.000264023
0.000257985
0.000251927
0.000245779
0.000239459
0.00023283
0.000225476
0.000216333
0.000204353
0.000191237
0.000184084
0.000195059
0.000225567
0.000267961
0.000310275
0.000332963
0.000343926
0.000354185
0.000164324
0.000226645
0.000273233
0.000301039
0.000318086
0.000328102
0.00033171
0.000330423
0.000325788
0.000319233
0.000312021
0.000305003
0.000298335
0.000291875
0.000285585
0.000279409
0.000273271
0.00026713
0.000260969
0.000254779
0.000248507
0.000242067
0.000235329
0.000227848
0.000218559
0.000206643
0.000193728
0.000185747
0.00019558
0.000226823
0.000268975
0.000309065
0.000333371
0.000345144
0.000353081
0.000164992
0.000227276
0.000273596
0.000301624
0.000319097
0.000329289
0.000332775
0.000331647
0.000327353
0.000321402
0.000314902
0.00030842
0.000301989
0.000295563
0.000289244
0.000283011
0.000276794
0.000270573
0.00026432
0.000258017
0.000251618
0.000245049
0.000238179
0.000230567
0.000221196
0.000209579
0.000197774
0.000190415
0.000198705
0.000227746
0.000269893
0.000310249
0.000335391
0.00034747
0.000349142
0.000166548
0.000228579
0.000274626
0.000303127
0.000320924
0.000331139
0.00033448
0.000333615
0.000329584
0.000323815
0.00031744
0.000311102
0.000304853
0.000298636
0.000292499
0.000286362
0.000280155
0.000273879
0.000267519
0.000261063
0.000254466
0.000247641
0.00024044
0.000232419
0.000222619
0.000210797
0.000199934
0.000194237
0.00020258
0.000229578
0.000271063
0.000313183
0.000335841
0.000344971
0.000344968
0.000168382
0.000230462
0.000275662
0.00030267
0.000320722
0.000331363
0.000334903
0.000334837
0.000331557
0.000326278
0.000320337
0.000314299
0.000308191
0.000302008
0.000295847
0.000289641
0.000283343
0.000276973
0.000270499
0.000263888
0.000257108
0.000250068
0.000242586
0.000234155
0.000223681
0.000211376
0.000201122
0.000199523
0.000210028
0.000233066
0.000272847
0.000313711
0.000336132
0.000344552
0.000344274
0.000168221
0.00023155
0.000276934
0.000303941
0.000320633
0.000331055
0.000335976
0.000336155
0.000333191
0.000328584
0.000323123
0.00031729
0.000311217
0.000305092
0.000298982
0.000292773
0.000286426
0.000279983
0.000273415
0.000266689
0.000259731
0.000252396
0.000244461
0.000235244
0.000223329
0.000208033
0.000197258
0.000198966
0.000217085
0.000243083
0.000277902
0.000316813
0.000334335
0.000341005
0.000332305
0.000165898
0.000231428
0.000277707
0.00030543
0.000322885
0.000333811
0.000338651
0.000338704
0.000335602
0.00033082
0.000325414
0.000319895
0.000314331
0.000308559
0.000302538
0.000296241
0.000289741
0.000283109
0.000276333
0.000269401
0.000262208
0.000254576
0.000246242
0.000236329
0.00022329
0.000207758
0.000196619
0.000199083
0.00022233
0.000254929
0.000289355
0.000315936
0.000329738
0.00033216
0.000315741
0.000165306
0.000231716
0.000279929
0.000308631
0.000326641
0.000337918
0.000343014
0.000343176
0.00034004
0.000335075
0.000329459
0.000323749
0.000317934
0.000311973
0.000305801
0.000299369
0.000292753
0.000286023
0.000279177
0.000272197
0.000265018
0.000257462
0.000249244
0.000239681
0.000227298
0.000211644
0.000198175
0.000197822
0.000219107
0.000251094
0.00028614
0.000314838
0.000329916
0.000330826
0.000314503
0.000166279
0.000233622
0.000282907
0.000311645
0.000329495
0.00034064
0.00034569
0.000345887
0.00034283
0.000337998
0.000332527
0.000326906
0.000321173
0.00031526
0.000309126
0.000302737
0.000296135
0.00028941
0.000282567
0.000275597
0.000268475
0.000261044
0.00025302
0.000243721
0.000231769
0.000216422
0.000201331
0.000196933
0.000214735
0.000245821
0.000281352
0.000311886
0.000328808
0.000330022
0.000322135
0.000167547
0.000236039
0.000285569
0.000314448
0.000332492
0.000343892
0.000349225
0.000349661
0.000346774
0.000341939
0.000336428
0.000330777
0.000324946
0.000318865
0.000312557
0.00030604
0.000299322
0.000292472
0.000285514
0.00027846
0.000271279
0.000263829
0.000255851
0.000246796
0.00023533
0.000220083
0.000203663
0.000195071
0.000207264
0.000236658
0.000274312
0.000309461
0.000328097
0.000332012
0.00033369
0.000168398
0.000238571
0.000289067
0.0003182
0.000336138
0.000347334
0.000352635
0.000353025
0.000350045
0.000345137
0.000339556
0.000333816
0.000327908
0.000321764
0.00031537
0.000308772
0.000301991
0.000295093
0.000288105
0.000281033
0.000273817
0.000266307
0.000258269
0.000249123
0.000237458
0.000221928
0.000205096
0.000195301
0.000205499
0.000234773
0.000274005
0.000310407
0.000327908
0.000333865
0.000335279
0.000169216
0.000241177
0.000292283
0.000321478
0.000339235
0.000350003
0.000354913
0.000355317
0.00035274
0.000348228
0.000342652
0.000336768
0.000330779
0.000324543
0.000318042
0.000311324
0.000304435
0.000297452
0.000290386
0.000283229
0.000275929
0.000268346
0.000260264
0.000251139
0.000239681
0.000224406
0.000207862
0.000197011
0.00020545
0.000234536
0.000273836
0.000309408
0.000327892
0.000335136
0.000335055
0.00017123
0.000244207
0.000295944
0.000325529
0.000343476
0.000354085
0.000358334
0.000358103
0.000355131
0.000350593
0.000345306
0.000339723
0.000333796
0.000327482
0.000320843
0.000313992
0.000307032
0.000299999
0.000292866
0.000285606
0.000278182
0.000270478
0.000262277
0.000253003
0.000241234
0.000226
0.00021107
0.000202501
0.000209246
0.00023591
0.000274602
0.000311914
0.000331757
0.000339516
0.000338293
0.000173562
0.000247283
0.000299569
0.000329445
0.000347586
0.000358246
0.000362122
0.000360794
0.000356725
0.000351538
0.000346055
0.000340641
0.000335058
0.000329148
0.000322819
0.000316094
0.000309093
0.00030194
0.000294635
0.00028715
0.000279454
0.000271491
0.000263062
0.00025349
0.000241262
0.000224911
0.000211158
0.000206715
0.000216024
0.00023777
0.000274402
0.000310693
0.000329924
0.000339348
0.000338155
0.000175693
0.000250033
0.00030294
0.000333322
0.000351937
0.000363089
0.000367339
0.000365943
0.000360826
0.000354058
0.000347191
0.000341047
0.000335302
0.00032948
0.000323249
0.000316625
0.000309765
0.00030278
0.000295591
0.000288141
0.00028036
0.000272236
0.00026362
0.000253688
0.000240787
0.000223577
0.000207502
0.000205793
0.000224978
0.000254014
0.000287791
0.000316791
0.000329522
0.000334672
0.000324784
0.000177345
0.000252298
0.000305901
0.000337002
0.000356156
0.000367737
0.000372329
0.000371267
0.000366369
0.000359464
0.000352055
0.000345102
0.000338736
0.000332649
0.000326326
0.000319664
0.000312735
0.000305561
0.000298125
0.000290417
0.000282397
0.000274054
0.000265245
0.000255054
0.000241677
0.000223919
0.000206925
0.000201848
0.000220537
0.000251162
0.00028536
0.000313864
0.000326425
0.000329207
0.000320192
0.000179239
0.00025399
0.000308218
0.000340112
0.000359836
0.000371825
0.000376689
0.000375631
0.000370467
0.00036313
0.000355217
0.000347737
0.000340913
0.000334502
0.000327969
0.000321103
0.00031399
0.000306688
0.000299166
0.000291392
0.000283294
0.000274848
0.000266002
0.000255979
0.000242759
0.00022486
0.000207203
0.000200577
0.000218126
0.000250095
0.000284557
0.000312422
0.000324635
0.000327405
0.000323359
0.000182375
0.000255567
0.000310199
0.000342697
0.000362848
0.000375112
0.000380193
0.000379167
0.000373842
0.000366203
0.000357898
0.000349976
0.00034283
0.000336193
0.000329614
0.000322771
0.000315643
0.000308291
0.0003007
0.00029282
0.000284557
0.000275869
0.000266675
0.00025624
0.00024263
0.000224256
0.000206532
0.000200759
0.000217484
0.000248235
0.000282768
0.000310122
0.000322996
0.000327159
0.000322539
0.000183694
0.000256357
0.00031111
0.000343999
0.000364544
0.000376893
0.000382225
0.000381385
0.000376252
0.000368804
0.000360661
0.000352819
0.000345622
0.000338793
0.000332011
0.000325036
0.000317787
0.000310337
0.000302644
0.000294665
0.00028631
0.000277504
0.000268057
0.000257233
0.000243074
0.000224676
0.000208205
0.000205451
0.000223198
0.000252207
0.000283133
0.00030926
0.000321798
0.000323394
0.000305698
0.000184055
0.000256621
0.000311519
0.000344835
0.000366099
0.000378894
0.000384706
0.00038409
0.000378916
0.000371399
0.000363209
0.000355333
0.000348142
0.000341393
0.000334704
0.000327829
0.00032069
0.000313321
0.000305751
0.000297975
0.000289897
0.000281346
0.000272115
0.000261687
0.000248595
0.000231384
0.00021376
0.000208335
0.000221931
0.000249323
0.000280617
0.000306241
0.000317255
0.000315938
0.000295611
0.000183199
0.000251195
0.000306512
0.000342913
0.000365898
0.000379833
0.000386758
0.00038699
0.000382386
0.000375137
0.000366958
0.000358918
0.000351501
0.00034457
0.000337773
0.000330875
0.000323767
0.000316435
0.00030891
0.00030118
0.000293114
0.00028458
0.000275433
0.000265195
0.000252671
0.000236402
0.000218102
0.000209029
0.000218279
0.000243952
0.000274444
0.00030034
0.000312174
0.000313748
0.000296748
0.000182191
0.0002506
0.000306046
0.000342572
0.000365456
0.00038151
0.000389586
0.00039036
0.000385975
0.000378734
0.000370514
0.000362406
0.000354839
0.00034774
0.000340815
0.000333816
0.000326671
0.000319342
0.000311839
0.000304158
0.000296182
0.000287852
0.000279045
0.000269388
0.000257956
0.000243044
0.000224299
0.000209205
0.000211231
0.000234304
0.000265443
0.000294392
0.000309496
0.000315359
0.000314473