/*--------------------------------*- C++ -*----------------------------------*\
| =========                 |                                                 |
| \\      /  F ield         | OpenFOAM: The Open Source CFD Toolbox           |
|  \\    /   O peration     | Version:  2.0.x                                 |
|   \\  /    A nd           | Web:      www.OpenFOAM.org                      |
|    \\/     M anipulation  |                                                 |
\*---------------------------------------------------------------------------*/
FoamFile
{
    version     2.0;
    format      ascii;
    class       volScalarField;
    location    "100";
    object      mut;
}
// * * * * * * * * * * * * * * * * * * * * * * * * * * * * * * * * * * * * * //

dimensions      [1 -1 -1 0 0 0 0];

internalField   nonuniform List<scalar> 
78750
(
1.10786e-09
1.42746e-06
1.97619e-06
2.43202e-06
2.78739e-06
3.09478e-06
3.74269e-06
4.1682e-06
4.38074e-06
4.49808e-06
4.80336e-06
4.945e-06
5.05912e-06
5.34525e-06
5.27437e-06
5.4468e-06
5.91299e-06
5.76665e-06
5.78222e-06
5.7171e-06
5.61117e-06
5.50942e-06
5.42344e-06
5.36238e-06
5.27327e-06
5.21236e-06
4.96313e-06
5.00093e-06
5.12542e-06
4.91268e-06
4.79167e-06
4.5593e-06
3.7445e-06
2.85573e-06
3.16475e-08
1.05554e-08
1.45022e-06
3.0984e-06
5.18412e-06
7.8857e-06
9.33737e-06
9.28278e-06
1.08962e-05
1.29733e-05
1.51773e-05
1.59295e-05
1.6578e-05
1.67611e-05
1.43568e-05
1.28939e-05
1.99003e-05
1.95256e-05
1.90305e-05
1.68164e-05
1.42054e-05
1.23703e-05
1.1258e-05
1.04422e-05
1.00054e-05
1.00189e-05
9.95225e-06
9.78612e-06
1.01463e-05
9.27326e-06
8.37534e-06
7.41791e-06
5.65979e-06
3.90754e-06
4.97209e-06
1.30355e-07
5.21484e-08
2.33819e-06
8.03639e-06
1.34477e-05
1.0569e-05
9.1141e-06
8.4523e-06
8.06461e-06
8.14767e-06
8.79037e-06
1.00104e-05
1.10243e-05
1.09007e-05
1.0825e-05
1.12853e-05
1.2434e-05
1.36891e-05
1.47922e-05
1.56151e-05
1.61568e-05
1.64733e-05
1.66317e-05
1.66933e-05
1.56704e-05
1.46205e-05
1.3876e-05
1.32172e-05
1.08396e-05
8.94584e-06
8.04869e-06
6.30843e-06
4.29601e-06
4.17944e-06
8.27386e-06
1.81994e-07
8.00603e-08
3.01344e-06
1.20296e-05
1.31214e-05
9.01823e-06
7.26942e-06
6.57536e-06
6.53598e-06
6.6702e-06
6.88989e-06
6.95541e-06
6.70559e-06
6.61192e-06
7.69018e-06
8.22745e-06
8.03299e-06
9.1152e-06
1.02449e-05
1.12815e-05
1.20087e-05
1.22747e-05
1.21828e-05
1.18543e-05
1.14167e-05
1.10313e-05
1.04207e-05
1.00066e-05
9.24923e-06
7.97037e-06
6.34444e-06
4.49885e-06
3.47657e-06
4.49545e-06
7.89944e-06
1.93897e-07
8.63617e-08
3.15862e-06
1.25932e-05
1.30333e-05
8.90122e-06
7.4387e-06
7.05277e-06
7.11173e-06
7.33166e-06
7.35473e-06
7.09127e-06
6.79418e-06
6.58034e-06
6.64339e-06
7.41604e-06
7.58335e-06
7.69309e-06
8.75348e-06
9.40691e-06
9.94843e-06
1.03248e-05
1.04807e-05
1.04196e-05
1.0173e-05
9.77445e-06
9.1887e-06
8.40459e-06
7.36273e-06
6.00215e-06
4.4875e-06
3.31602e-06
2.93117e-06
4.52003e-06
7.14365e-06
2.05869e-07
8.5392e-08
3.1626e-06
1.26383e-05
1.39896e-05
1.0266e-05
8.56778e-06
7.98098e-06
7.97529e-06
8.31481e-06
8.84451e-06
9.32389e-06
9.53726e-06
9.46948e-06
9.28233e-06
8.88704e-06
8.5834e-06
7.90002e-06
7.44083e-06
7.59922e-06
7.84386e-06
8.10458e-06
8.33933e-06
8.50345e-06
8.53794e-06
8.37825e-06
7.9447e-06
7.17433e-06
6.07003e-06
4.77073e-06
3.55477e-06
2.76078e-06
2.71731e-06
4.72514e-06
6.75669e-06
2.2022e-07
8.42021e-08
3.17714e-06
1.17592e-05
1.65952e-05
1.25335e-05
9.9919e-06
8.9107e-06
8.65066e-06
8.91966e-06
9.61601e-06
1.069e-05
1.21505e-05
1.40211e-05
1.6035e-05
1.63914e-05
1.45307e-05
1.29024e-05
1.15291e-05
1.04175e-05
9.57027e-06
8.96672e-06
8.33954e-06
7.51156e-06
6.86771e-06
6.24719e-06
5.56447e-06
4.80899e-06
3.97466e-06
3.16581e-06
2.51277e-06
2.22999e-06
2.42738e-06
4.51793e-06
6.62933e-06
2.37701e-07
8.53442e-08
3.12543e-06
1.13372e-05
1.77296e-05
1.36366e-05
1.09604e-05
9.82452e-06
9.56033e-06
9.86575e-06
1.06844e-05
1.20905e-05
1.41789e-05
1.69645e-05
2.00978e-05
2.15475e-05
2.01026e-05
1.87754e-05
1.75567e-05
1.64334e-05
1.53884e-05
1.43987e-05
1.3444e-05
1.25111e-05
1.16018e-05
9.76754e-06
6.94564e-06
4.49501e-06
3.07842e-06
2.2973e-06
1.92171e-06
1.82004e-06
2.25961e-06
5.05546e-06
6.00024e-06
2.5132e-07
8.66073e-08
3.15999e-06
1.12668e-05
1.88295e-05
1.51509e-05
1.22102e-05
1.08815e-05
1.06077e-05
1.10504e-05
1.21464e-05
1.40002e-05
1.67447e-05
2.03146e-05
2.40789e-05
2.60462e-05
2.48276e-05
2.37232e-05
2.27222e-05
2.18077e-05
2.09546e-05
2.01237e-05
1.92768e-05
1.83771e-05
1.73935e-05
1.4423e-05
9.53727e-06
6.37563e-06
3.70587e-06
2.26506e-06
1.76312e-06
1.77314e-06
2.35353e-06
5.25076e-06
6.12057e-06
2.56094e-07
8.737e-08
3.09597e-06
1.06021e-05
1.92818e-05
1.61701e-05
1.30153e-05
1.15236e-05
1.12013e-05
1.16984e-05
1.29778e-05
1.52074e-05
1.86184e-05
2.3143e-05
2.78595e-05
2.9509e-05
2.84569e-05
2.75087e-05
2.66563e-05
2.58848e-05
2.51737e-05
2.44968e-05
2.38272e-05
2.31377e-05
2.24014e-05
1.75081e-05
1.12999e-05
8.02836e-06
5.80956e-06
3.34714e-06
2.05804e-06
1.64103e-06
2.09009e-06
4.58406e-06
6.7605e-06
2.8494e-07
8.97168e-08
3.11084e-06
1.0479e-05
1.98905e-05
1.71749e-05
1.39174e-05
1.23622e-05
1.20652e-05
1.26871e-05
1.42046e-05
1.68269e-05
2.08424e-05
2.60923e-05
3.13509e-05
3.22642e-05
3.13216e-05
3.04784e-05
2.97266e-05
2.9052e-05
2.84364e-05
2.78583e-05
2.72955e-05
2.67282e-05
2.44534e-05
1.99512e-05
1.40527e-05
8.51251e-06
6.81753e-06
4.44883e-06
2.40932e-06
1.71203e-06
1.82431e-06
3.88028e-06
7.01892e-06
3.27356e-07
9.26027e-08
3.08831e-06
1.01281e-05
2.0146e-05
1.80545e-05
1.47067e-05
1.30451e-05
1.27384e-05
1.34339e-05
1.51133e-05
1.80486e-05
2.25882e-05
2.8612e-05
3.47139e-05
3.45408e-05
3.36592e-05
3.28748e-05
3.21791e-05
3.15576e-05
3.09922e-05
3.04609e-05
2.99394e-05
2.94033e-05
2.88344e-05
2.36755e-05
1.59284e-05
8.76227e-06
6.16576e-06
4.57951e-06
2.48084e-06
1.61938e-06
1.70062e-06
4.18384e-06
6.17241e-06
3.43379e-07
9.54621e-08
3.10401e-06
1.00453e-05
2.04897e-05
1.868e-05
1.5298e-05
1.36515e-05
1.34342e-05
1.42843e-05
1.61866e-05
1.93833e-05
2.41577e-05
3.03792e-05
3.67285e-05
3.64312e-05
3.56063e-05
3.48753e-05
3.42304e-05
3.36579e-05
3.31408e-05
3.26576e-05
3.21827e-05
3.16868e-05
3.11376e-05
2.57765e-05
1.6477e-05
9.79661e-06
5.42633e-06
3.6593e-06
2.27735e-06
1.62834e-06
2.02202e-06
5.54611e-06
5.72197e-06
3.43469e-07
9.80457e-08
3.09416e-06
9.85487e-06
2.06258e-05
1.91954e-05
1.58035e-05
1.41587e-05
1.39958e-05
1.49516e-05
1.69763e-05
2.02225e-05
2.48388e-05
3.059e-05
3.64196e-05
3.82226e-05
3.74408e-05
3.67533e-05
3.61537e-05
3.5631e-05
3.51723e-05
3.4761e-05
3.43775e-05
3.39983e-05
3.12566e-05
2.34935e-05
1.62446e-05
1.03269e-05
5.69104e-06
3.81455e-06
2.40454e-06
1.72952e-06
2.19964e-06
5.87082e-06
5.86342e-06
3.53716e-07
1.02116e-07
3.10158e-06
9.80263e-06
2.06558e-05
1.93336e-05
1.60396e-05
1.4513e-05
1.45079e-05
1.56637e-05
1.79157e-05
2.13427e-05
2.58731e-05
3.09945e-05
3.58251e-05
3.94934e-05
3.89518e-05
3.83118e-05
3.77636e-05
3.72983e-05
3.69054e-05
3.65721e-05
3.62832e-05
3.3497e-05
2.79705e-05
2.14613e-05
1.54289e-05
1.04461e-05
5.88456e-06
4.37638e-06
2.8157e-06
1.84088e-06
2.04174e-06
5.13839e-06
6.1443e-06
4.09567e-07
1.08392e-07
3.1157e-06
9.76735e-06
2.0559e-05
1.94577e-05
1.63156e-05
1.48713e-05
1.49434e-05
1.62151e-05
1.86043e-05
2.21024e-05
2.64711e-05
3.10261e-05
3.48881e-05
3.75266e-05
3.89113e-05
3.93291e-05
3.91525e-05
3.86266e-05
3.78097e-05
3.66312e-05
3.48815e-05
3.20527e-05
2.76056e-05
2.15485e-05
1.55333e-05
1.06901e-05
5.82887e-06
4.46913e-06
2.95778e-06
1.84705e-06
1.98698e-06
5.12695e-06
6.04965e-06
4.5785e-07
1.17324e-07
3.15483e-06
9.84888e-06
2.04587e-05
1.94449e-05
1.64879e-05
1.51871e-05
1.53791e-05
1.6791e-05
1.93161e-05
2.28408e-05
2.69598e-05
3.08919e-05
3.38584e-05
3.55592e-05
3.61929e-05
3.61445e-05
3.57725e-05
3.53048e-05
3.48303e-05
3.43233e-05
3.3453e-05
3.16828e-05
2.81523e-05
2.22815e-05
1.56325e-05
1.04353e-05
5.57191e-06
4.19774e-06
2.73801e-06
1.79492e-06
2.12803e-06
6.19268e-06
5.67583e-06
4.78661e-07
1.28464e-07
3.21967e-06
1.00144e-05
2.03527e-05
1.94549e-05
1.6735e-05
1.55648e-05
1.58141e-05
1.72569e-05
1.97749e-05
2.3178e-05
2.69629e-05
3.03301e-05
3.26198e-05
3.37074e-05
3.38997e-05
3.36106e-05
3.31786e-05
3.28422e-05
3.27205e-05
3.27332e-05
3.25969e-05
3.1747e-05
2.87802e-05
2.25817e-05
1.54388e-05
9.74606e-06
5.21695e-06
3.83889e-06
2.55344e-06
1.8634e-06
2.52205e-06
7.99751e-06
5.55192e-06
4.76037e-07
1.40646e-07
3.2937e-06
1.02039e-05
2.02638e-05
1.94781e-05
1.70114e-05
1.59596e-05
1.62357e-05
1.76563e-05
2.01313e-05
2.34419e-05
2.7024e-05
3.00509e-05
3.19187e-05
3.26107e-05
3.25179e-05
3.20805e-05
3.16452e-05
3.1428e-05
3.15976e-05
3.20907e-05
3.26645e-05
3.24827e-05
2.97333e-05
2.3182e-05
1.42453e-05
8.80705e-06
4.97387e-06
3.67564e-06
2.53256e-06
1.97322e-06
2.96268e-06
9.99288e-06
5.46893e-06
4.70284e-07
1.5398e-07
3.37768e-06
1.04437e-05
2.02934e-05
1.95266e-05
1.72484e-05
1.63016e-05
1.66256e-05
1.80541e-05
2.05299e-05
2.38295e-05
2.73504e-05
3.02256e-05
3.18659e-05
3.23305e-05
3.208e-05
3.15765e-05
3.11651e-05
3.10811e-05
3.15302e-05
3.24994e-05
3.35919e-05
3.36965e-05
3.0029e-05
2.09239e-05
1.27936e-05
7.82048e-06
4.73503e-06
3.57638e-06
2.55613e-06
2.19312e-06
3.6654e-06
1.25193e-05
5.58261e-06
4.45637e-07
1.66966e-07
3.45798e-06
1.06896e-05
2.03353e-05
1.94361e-05
1.72701e-05
1.64388e-05
1.68654e-05
1.83491e-05
2.08044e-05
2.40183e-05
2.74219e-05
3.01996e-05
3.18042e-05
3.22607e-05
3.20116e-05
3.15097e-05
3.11078e-05
3.10703e-05
3.15689e-05
3.25825e-05
3.35998e-05
3.30658e-05
2.77896e-05
1.8712e-05
1.15803e-05
6.94013e-06
4.9942e-06
3.76493e-06
2.62081e-06
2.52088e-06
4.5077e-06
1.49833e-05
5.53164e-06
4.17535e-07
1.78605e-07
3.53865e-06
1.09767e-05
2.04441e-05
1.9488e-05
1.74802e-05
1.67886e-05
1.73043e-05
1.88312e-05
2.12445e-05
2.43398e-05
2.76017e-05
3.02839e-05
3.18238e-05
3.22304e-05
3.19114e-05
3.13255e-05
3.08053e-05
3.06814e-05
3.11523e-05
3.21238e-05
3.29681e-05
3.1657e-05
2.52334e-05
1.69341e-05
1.10615e-05
7.16472e-06
5.49647e-06
4.00486e-06
2.73127e-06
2.70934e-06
4.98506e-06
1.62346e-05
5.55467e-06
4.09981e-07
1.91223e-07
3.59419e-06
1.11031e-05
2.04259e-05
1.9405e-05
1.74285e-05
1.67785e-05
1.73796e-05
1.89855e-05
2.14701e-05
2.46223e-05
2.79217e-05
3.05689e-05
3.19929e-05
3.22041e-05
3.17255e-05
3.09468e-05
3.03561e-05
3.02488e-05
3.07065e-05
3.17306e-05
3.26245e-05
3.04224e-05
2.29635e-05
1.53276e-05
1.07194e-05
7.49582e-06
6.00753e-06
4.18921e-06
3.01167e-06
3.26241e-06
5.9766e-06
1.74416e-05
5.46599e-06
3.95986e-07
2.00436e-07
3.66803e-06
1.14112e-05
2.06792e-05
1.94917e-05
1.76242e-05
1.70957e-05
1.77853e-05
1.94912e-05
2.2003e-05
2.511e-05
2.83172e-05
3.08997e-05
3.22925e-05
3.24508e-05
3.18632e-05
3.1023e-05
3.03526e-05
3.0069e-05
3.03432e-05
3.09757e-05
3.16861e-05
2.90207e-05
2.0683e-05
1.34046e-05
9.91037e-06
7.64893e-06
6.17115e-06
4.34901e-06
3.34596e-06
3.84514e-06
7.1928e-06
1.82716e-05
5.37142e-06
3.73807e-07
2.08279e-07
3.71043e-06
1.157e-05
2.0862e-05
1.97391e-05
1.79878e-05
1.74907e-05
1.81225e-05
1.9686e-05
2.20694e-05
2.50989e-05
2.84211e-05
3.13188e-05
3.30175e-05
3.33469e-05
3.2669e-05
3.16829e-05
3.09061e-05
3.04709e-05
3.04643e-05
3.07823e-05
3.06713e-05
2.65823e-05
1.72947e-05
1.14887e-05
9.23108e-06
7.94877e-06
6.79763e-06
5.13337e-06
3.96396e-06
4.49109e-06
8.48666e-06
1.89686e-05
5.29854e-06
3.48949e-07
2.13715e-07
3.74899e-06
1.17175e-05
2.10455e-05
1.9883e-05
1.81643e-05
1.77062e-05
1.84047e-05
2.00948e-05
2.25843e-05
2.56862e-05
2.90366e-05
3.20161e-05
3.39933e-05
3.4665e-05
3.41984e-05
3.31729e-05
3.22429e-05
3.16316e-05
3.13791e-05
3.11675e-05
3.01131e-05
2.40186e-05
1.46314e-05
9.63296e-06
7.97154e-06
7.61182e-06
7.0604e-06
5.92989e-06
5.00831e-06
5.49881e-06
9.81569e-06
1.87645e-05
5.04731e-06
3.27842e-07
2.16623e-07
3.74925e-06
1.16609e-05
2.10898e-05
2.01585e-05
1.79702e-05
1.74863e-05
1.8432e-05
2.01877e-05
2.26676e-05
2.58254e-05
2.93242e-05
3.24966e-05
3.46772e-05
3.56373e-05
3.54582e-05
3.46426e-05
3.3743e-05
3.29626e-05
3.23372e-05
3.18368e-05
2.97207e-05
2.26352e-05
1.30672e-05
8.38161e-06
7.00937e-06
6.88207e-06
6.83018e-06
6.44133e-06
6.00796e-06
6.48459e-06
1.03775e-05
1.88047e-05
4.96177e-06
3.26956e-07
2.18566e-07
3.70706e-06
1.20725e-05
2.13434e-05
2.03505e-05
1.83053e-05
1.7828e-05
1.86745e-05
2.03347e-05
2.27273e-05
2.58599e-05
2.94869e-05
3.28807e-05
3.51203e-05
3.59336e-05
3.56616e-05
3.49607e-05
3.41072e-05
3.31935e-05
3.2387e-05
3.16155e-05
2.95714e-05
2.16262e-05
1.19094e-05
7.47751e-06
6.39777e-06
6.64217e-06
6.91201e-06
6.64113e-06
6.32345e-06
7.03374e-06
1.1546e-05
1.83816e-05
4.93544e-06
3.33851e-07
2.17902e-07
3.75548e-06
1.11524e-05
2.10902e-05
2.08184e-05
1.78889e-05
1.72143e-05
1.88173e-05
2.06391e-05
2.29644e-05
2.60051e-05
2.96688e-05
3.33749e-05
3.60731e-05
3.62917e-05
3.57892e-05
3.4999e-05
3.39378e-05
3.29571e-05
3.22536e-05
3.15601e-05
2.92405e-05
2.0158e-05
1.04383e-05
6.4189e-06
5.83459e-06
6.29103e-06
6.65907e-06
6.86472e-06
7.00059e-06
8.52998e-06
1.36259e-05
1.85539e-05
4.98992e-06
3.29538e-07
2.1614e-07
3.7773e-06
1.18962e-05
2.1626e-05
2.15608e-05
2.07859e-05
1.98117e-05
1.91587e-05
2.06128e-05
2.28833e-05
2.55997e-05
2.89226e-05
3.20225e-05
3.39945e-05
3.53662e-05
3.59828e-05
3.52116e-05
3.41483e-05
3.30615e-05
3.21036e-05
3.11568e-05
2.89455e-05
2.06171e-05
1.00095e-05
5.70938e-06
5.18916e-06
5.53138e-06
6.16104e-06
7.23094e-06
7.91089e-06
9.17437e-06
1.37997e-05
1.86331e-05
4.96473e-06
3.11354e-07
2.13627e-07
3.82867e-06
1.19409e-05
2.19592e-05
2.20692e-05
2.0167e-05
1.98831e-05
2.1009e-05
2.17219e-05
2.32041e-05
2.56393e-05
2.87099e-05
3.20912e-05
3.465e-05
3.57901e-05
3.58334e-05
3.53582e-05
3.43515e-05
3.31062e-05
3.18254e-05
3.03466e-05
2.78047e-05
2.12642e-05
1.19221e-05
6.36682e-06
4.66978e-06
4.39229e-06
5.06404e-06
6.40919e-06
7.48868e-06
9.12552e-06
1.42273e-05
1.95182e-05
5.03215e-06
3.11919e-07
2.13856e-07
3.88024e-06
1.2434e-05
2.23592e-05
2.20006e-05
2.1291e-05
2.18088e-05
2.22313e-05
2.27624e-05
2.39425e-05
2.59989e-05
2.88056e-05
3.18535e-05
3.4743e-05
3.63446e-05
3.6624e-05
3.60476e-05
3.50592e-05
3.39471e-05
3.26201e-05
3.11355e-05
2.85894e-05
2.16666e-05
1.25372e-05
6.81744e-06
4.78713e-06
4.16023e-06
4.43524e-06
5.3925e-06
6.51457e-06
8.59076e-06
1.39263e-05
2.06809e-05
5.12715e-06
3.25858e-07
2.13828e-07
3.89157e-06
1.22339e-05
2.24294e-05
2.16882e-05
1.98791e-05
1.978e-05
2.08152e-05
2.31535e-05
2.65248e-05
2.99332e-05
3.28845e-05
3.53009e-05
3.69343e-05
3.79954e-05
3.81896e-05
3.77289e-05
3.68197e-05
3.56106e-05
3.4411e-05
3.31041e-05
3.04306e-05
2.30246e-05
1.25413e-05
6.7228e-06
4.95074e-06
4.37149e-06
4.38822e-06
5.02165e-06
5.93414e-06
8.07703e-06
1.45138e-05
2.08237e-05
5.2753e-06
3.26357e-07
2.09735e-07
3.87934e-06
1.21929e-05
2.24509e-05
2.18253e-05
2.02464e-05
2.01836e-05
2.13047e-05
2.36691e-05
2.68884e-05
3.08172e-05
3.45059e-05
3.72911e-05
3.86418e-05
3.92041e-05
3.92821e-05
3.87162e-05
3.77191e-05
3.64818e-05
3.45074e-05
3.26803e-05
3.10253e-05
2.48104e-05
1.35672e-05
6.6415e-06
4.74482e-06
4.28925e-06
4.36545e-06
5.02748e-06
5.99135e-06
8.09303e-06
1.39212e-05
2.13374e-05
5.24115e-06
3.17017e-07
2.09107e-07
3.89793e-06
1.2154e-05
2.23115e-05
2.16871e-05
2.02767e-05
2.02252e-05
2.05475e-05
2.20359e-05
2.52605e-05
2.96846e-05
3.46486e-05
3.87181e-05
4.10232e-05
4.18374e-05
4.1677e-05
4.0953e-05
3.99082e-05
3.87035e-05
3.74664e-05
3.59651e-05
3.31459e-05
2.6554e-05
1.54803e-05
7.77469e-06
4.69477e-06
3.99435e-06
4.0936e-06
4.58024e-06
5.65491e-06
7.47985e-06
1.25376e-05
2.15557e-05
5.25319e-06
3.15785e-07
2.05831e-07
3.84342e-06
1.19478e-05
2.23107e-05
2.16922e-05
1.9843e-05
1.9759e-05
2.08356e-05
2.25447e-05
2.5683e-05
2.97608e-05
3.47899e-05
3.96178e-05
4.22535e-05
4.35475e-05
4.37902e-05
4.31699e-05
4.2125e-05
4.08042e-05
3.9165e-05
3.7105e-05
3.40616e-05
2.7881e-05
1.73545e-05
9.01256e-06
5.10686e-06
3.87854e-06
3.72811e-06
4.1564e-06
5.11131e-06
6.77784e-06
1.17868e-05
2.13658e-05
5.3032e-06
3.21816e-07
2.01998e-07
3.79629e-06
1.19647e-05
2.24027e-05
2.18636e-05
2.05901e-05
2.02267e-05
2.0261e-05
2.18669e-05
2.49983e-05
2.94188e-05
3.42142e-05
3.79994e-05
4.20068e-05
4.45536e-05
4.5188e-05
4.51306e-05
4.43589e-05
4.30608e-05
4.14684e-05
3.94185e-05
3.63293e-05
3.01913e-05
1.92244e-05
1.0028e-05
5.6466e-06
3.97781e-06
3.52218e-06
3.80654e-06
4.56304e-06
6.27597e-06
1.15161e-05
2.17059e-05
5.4113e-06
3.33038e-07
1.97966e-07
3.78838e-06
1.21643e-05
2.26176e-05
2.24521e-05
2.02328e-05
1.98212e-05
2.03123e-05
2.21023e-05
2.53007e-05
2.92278e-05
3.38296e-05
3.80628e-05
4.22286e-05
4.4769e-05
4.59891e-05
4.59929e-05
4.5181e-05
4.4072e-05
4.25291e-05
4.05739e-05
3.77298e-05
3.15208e-05
2.03329e-05
1.05037e-05
5.94694e-06
4.14787e-06
3.57208e-06
3.68917e-06
4.2583e-06
5.97983e-06
1.12496e-05
2.17068e-05
5.45664e-06
3.41852e-07
1.96872e-07
3.78682e-06
1.21581e-05
2.28859e-05
2.25091e-05
2.09672e-05
1.97882e-05
2.04728e-05
2.23875e-05
2.51468e-05
2.91408e-05
3.36017e-05
3.87041e-05
4.27523e-05
4.53629e-05
4.66262e-05
4.63774e-05
4.56858e-05
4.44699e-05
4.29845e-05
4.11081e-05
3.80973e-05
3.19052e-05
2.00468e-05
1.04022e-05
5.99662e-06
4.27685e-06
3.72752e-06
3.73724e-06
4.2945e-06
5.9374e-06
1.07297e-05
2.2314e-05
5.4345e-06
3.52003e-07
1.97927e-07
3.80177e-06
1.23181e-05
2.32913e-05
2.2856e-05
2.11764e-05
2.06397e-05
2.09442e-05
2.23899e-05
2.51519e-05
2.9327e-05
3.41825e-05
3.92665e-05
4.34691e-05
4.6491e-05
4.78481e-05
4.78754e-05
4.70061e-05
4.57988e-05
4.41893e-05
4.20864e-05
3.90086e-05
3.22989e-05
1.97456e-05
9.68683e-06
5.48344e-06
4.09544e-06
3.88137e-06
4.0251e-06
4.45318e-06
5.95707e-06
1.06324e-05
2.2712e-05
5.50558e-06
3.56104e-07
1.99075e-07
3.83091e-06
1.25767e-05
2.35663e-05
2.31642e-05
2.14902e-05
2.08366e-05
2.14068e-05
2.3544e-05
2.6468e-05
2.96167e-05
3.46036e-05
3.95937e-05
4.3543e-05
4.69856e-05
4.8949e-05
4.91729e-05
4.85799e-05
4.73886e-05
4.57459e-05
4.34908e-05
4.02109e-05
3.33877e-05
1.98531e-05
9.45207e-06
5.27096e-06
3.95614e-06
3.83599e-06
4.07449e-06
4.51616e-06
5.79669e-06
1.0468e-05
2.22859e-05
5.38165e-06
3.55606e-07
1.98875e-07
3.81165e-06
1.2468e-05
2.36048e-05
2.41432e-05
2.18197e-05
2.08126e-05
2.09721e-05
2.22091e-05
2.53318e-05
2.99321e-05
3.47687e-05
4.08655e-05
4.63847e-05
4.92699e-05
5.03185e-05
5.02972e-05
4.95301e-05
4.82298e-05
4.65921e-05
4.47608e-05
4.1986e-05
3.44229e-05
1.88009e-05
8.48346e-06
4.80119e-06
3.76206e-06
3.69223e-06
4.10398e-06
4.95744e-06
6.88991e-06
1.27947e-05
2.15424e-05
5.34123e-06
3.41975e-07
1.99453e-07
3.84177e-06
1.22479e-05
2.36981e-05
2.37389e-05
2.2304e-05
2.10499e-05
2.12245e-05
2.25547e-05
2.53133e-05
2.99488e-05
3.5758e-05
4.21738e-05
4.83927e-05
5.11092e-05
5.15504e-05
5.12748e-05
5.03527e-05
4.90025e-05
4.70502e-05
4.48544e-05
4.20792e-05
3.45536e-05
1.88025e-05
7.99888e-06
4.68296e-06
3.68152e-06
3.6948e-06
4.22998e-06
5.07265e-06
7.09492e-06
1.28776e-05
2.17943e-05
5.33091e-06
3.3364e-07
1.99457e-07
3.83907e-06
1.24737e-05
2.38392e-05
2.42549e-05
2.25305e-05
2.13678e-05
2.14081e-05
2.32862e-05
2.60408e-05
2.96431e-05
3.37876e-05
3.94843e-05
4.6945e-05
5.11633e-05
5.30353e-05
5.20995e-05
5.11567e-05
5.0203e-05
4.92348e-05
4.74423e-05
4.44372e-05
3.77845e-05
2.16012e-05
9.12204e-06
4.73074e-06
3.61541e-06
3.49401e-06
3.91622e-06
5.00669e-06
7.06151e-06
1.27209e-05
2.19764e-05
5.3189e-06
3.30664e-07
1.98501e-07
3.89892e-06
1.24398e-05
2.38031e-05
2.40655e-05
2.22432e-05
2.10217e-05
2.14949e-05
2.29328e-05
2.59387e-05
3.0508e-05
3.56127e-05
4.18737e-05
4.72197e-05
5.15344e-05
5.36782e-05
5.275e-05
5.18145e-05
5.08673e-05
4.99038e-05
4.75829e-05
4.42942e-05
3.82355e-05
2.40882e-05
1.08072e-05
5.21915e-06
3.68273e-06
3.33231e-06
3.62758e-06
4.68034e-06
6.71226e-06
1.21117e-05
2.22623e-05
5.35489e-06
3.29815e-07
1.95869e-07
3.86917e-06
1.24766e-05
2.3911e-05
2.4139e-05
2.20065e-05
2.10196e-05
2.15455e-05
2.33777e-05
2.64583e-05
3.04516e-05
3.56101e-05
4.13355e-05
4.65967e-05
5.08477e-05
5.3521e-05
5.32825e-05
5.23548e-05
5.14195e-05
5.01147e-05
4.75122e-05
4.39349e-05
3.80357e-05
2.62169e-05
1.28473e-05
6.07417e-06
3.92176e-06
3.2464e-06
3.43235e-06
4.3723e-06
6.23162e-06
1.10535e-05
2.24824e-05
5.35454e-06
3.30674e-07
1.93815e-07
3.82326e-06
1.23549e-05
2.40359e-05
2.42819e-05
2.23136e-05
2.13637e-05
2.16339e-05
2.30989e-05
2.62341e-05
3.08287e-05
3.61607e-05
4.15726e-05
4.65039e-05
5.06097e-05
5.28924e-05
5.36378e-05
5.29434e-05
5.18144e-05
4.98657e-05
4.72792e-05
4.37657e-05
3.80165e-05
2.73516e-05
1.49444e-05
7.28457e-06
4.19177e-06
3.20731e-06
3.31651e-06
4.03572e-06
5.46399e-06
9.80122e-06
2.26502e-05
5.55871e-06
3.49806e-07
1.93137e-07
3.82901e-06
1.22098e-05
2.40321e-05
2.43524e-05
2.25756e-05
2.15551e-05
2.17663e-05
2.33615e-05
2.64652e-05
3.10219e-05
3.67477e-05
4.29582e-05
4.78635e-05
5.12284e-05
5.30082e-05
5.34414e-05
5.28209e-05
5.14679e-05
4.95571e-05
4.70995e-05
4.38376e-05
3.87468e-05
2.9164e-05
1.64034e-05
8.16591e-06
4.51306e-06
3.3301e-06
3.14632e-06
3.51091e-06
4.77499e-06
9.05588e-06
2.27551e-05
5.69752e-06
3.65073e-07
1.9367e-07
3.82929e-06
1.2271e-05
2.41713e-05
2.41212e-05
2.22304e-05
2.19364e-05
2.26954e-05
2.39503e-05
2.70193e-05
3.20957e-05
3.81732e-05
4.41098e-05
4.91255e-05
5.25273e-05
5.42139e-05
5.44957e-05
5.37874e-05
5.24188e-05
5.05771e-05
4.82856e-05
4.53069e-05
4.05785e-05
3.08224e-05
1.69038e-05
8.14547e-06
4.57749e-06
3.39199e-06
3.08723e-06
3.36321e-06
4.61421e-06
8.57911e-06
2.27502e-05
5.6214e-06
3.68519e-07
1.93934e-07
3.83819e-06
1.22099e-05
2.42308e-05
2.42255e-05
2.22511e-05
2.20323e-05
2.30363e-05
2.46981e-05
2.74329e-05
3.19187e-05
3.85306e-05
4.5048e-05
5.0275e-05
5.36603e-05
5.52638e-05
5.5381e-05
5.44497e-05
5.35053e-05
5.18012e-05
4.95825e-05
4.65965e-05
4.16113e-05
3.09891e-05
1.65963e-05
8.09038e-06
4.61521e-06
3.41871e-06
3.09852e-06
3.3706e-06
4.64146e-06
8.76594e-06
2.32931e-05
5.69547e-06
3.67371e-07
1.94716e-07
3.84728e-06
1.26188e-05
2.45877e-05
2.46806e-05
2.29801e-05
2.20734e-05
2.29803e-05
2.5381e-05
2.8447e-05
3.33303e-05
3.97466e-05
4.58951e-05
5.11295e-05
5.47787e-05
5.65199e-05
5.59095e-05
5.49707e-05
5.4017e-05
5.28318e-05
5.05695e-05
4.75078e-05
4.23174e-05
3.10939e-05
1.62391e-05
7.93144e-06
4.595e-06
3.4643e-06
3.1797e-06
3.4328e-06
4.6698e-06
8.8125e-06
2.37856e-05
5.71467e-06
3.63269e-07
1.96545e-07
3.95971e-06
1.29377e-05
2.47865e-05
2.53193e-05
2.3961e-05
2.2623e-05
2.28699e-05
2.57036e-05
2.90322e-05
3.37788e-05
4.03292e-05
4.67829e-05
5.2289e-05
5.59168e-05
5.73325e-05
5.64108e-05
5.5469e-05
5.45038e-05
5.33431e-05
5.0934e-05
4.76988e-05
4.2266e-05
3.06573e-05
1.57512e-05
7.63397e-06
4.48046e-06
3.45746e-06
3.21503e-06
3.52949e-06
4.83628e-06
9.15397e-06
2.39876e-05
5.66702e-06
3.58932e-07
1.98695e-07
4.01309e-06
1.32868e-05
2.49347e-05
2.52585e-05
2.34788e-05
2.37517e-05
2.50159e-05
2.56697e-05
2.87678e-05
3.47198e-05
4.17981e-05
4.83748e-05
5.36204e-05
5.71679e-05
5.78142e-05
5.68834e-05
5.59319e-05
5.4954e-05
5.39438e-05
5.21774e-05
4.8887e-05
4.33067e-05
3.12019e-05
1.52235e-05
7.28524e-06
4.38976e-06
3.55471e-06
3.38434e-06
3.61433e-06
4.88502e-06
9.36658e-06
2.42411e-05
5.65558e-06
3.58176e-07
1.98503e-07
4.03997e-06
1.30941e-05
2.48982e-05
2.51169e-05
2.31755e-05
2.28254e-05
2.43835e-05
2.7583e-05
3.20404e-05
3.62877e-05
4.09353e-05
4.76131e-05
5.49428e-05
5.88582e-05
5.82687e-05
5.73348e-05
5.63768e-05
5.53892e-05
5.43656e-05
5.23932e-05
4.93785e-05
4.42566e-05
3.10134e-05
1.41661e-05
6.59526e-06
4.07667e-06
3.35309e-06
3.35782e-06
3.80056e-06
5.37696e-06
1.12119e-05
2.34829e-05
5.55768e-06
3.45708e-07
1.95766e-07
4.00325e-06
1.325e-05
2.49174e-05
2.53004e-05
2.35808e-05
2.30863e-05
2.42873e-05
2.68187e-05
3.09283e-05
3.63595e-05
4.42067e-05
5.19209e-05
5.71865e-05
5.96843e-05
5.87715e-05
5.78196e-05
5.68381e-05
5.58236e-05
5.4619e-05
5.19487e-05
4.87546e-05
4.29442e-05
2.80173e-05
1.28212e-05
6.02215e-06
3.92617e-06
3.30409e-06
3.47249e-06
4.33416e-06
6.09616e-06
1.1228e-05
2.32705e-05
5.40621e-06
3.28496e-07
1.95069e-07
4.01749e-06
1.30079e-05
2.48742e-05
2.49477e-05
2.32886e-05
2.32385e-05
2.47743e-05
2.74344e-05
3.08232e-05
3.67092e-05
4.39384e-05
5.08865e-05
5.71846e-05
6.01464e-05
5.92182e-05
5.82547e-05
5.72636e-05
5.62443e-05
5.51919e-05
5.30307e-05
4.93624e-05
4.35689e-05
3.07618e-05
1.4439e-05
6.58905e-06
4.05495e-06
3.2411e-06
3.37182e-06
4.18939e-06
5.84894e-06
1.07125e-05
2.34437e-05
5.3836e-06
3.2722e-07
1.96216e-07
4.05941e-06
1.33603e-05
2.51062e-05
2.54664e-05
2.37756e-05
2.3127e-05
2.45611e-05
2.70544e-05
3.07446e-05
3.61607e-05
4.28144e-05
5.02778e-05
5.67863e-05
6.06188e-05
5.97021e-05
5.87455e-05
5.77606e-05
5.67467e-05
5.57012e-05
5.39657e-05
4.99873e-05
4.38008e-05
3.10986e-05
1.61732e-05
7.58798e-06
4.27514e-06
3.19688e-06
3.25303e-06
3.98342e-06
5.48516e-06
1.01062e-05
2.35499e-05
5.45322e-06
3.35179e-07
1.9771e-07
4.08584e-06
1.3361e-05
2.53312e-05
2.56109e-05
2.37302e-05
2.35517e-05
2.48842e-05
2.68138e-05
3.08524e-05
3.68837e-05
4.3591e-05
4.99926e-05
5.53532e-05
5.90527e-05
6.01752e-05
5.92067e-05
5.82081e-05
5.71821e-05
5.61296e-05
5.39496e-05
5.02419e-05
4.43752e-05
3.34316e-05
1.80097e-05
8.33436e-06
4.5141e-06
3.27185e-06
3.15534e-06
3.62461e-06
5.0135e-06
9.80116e-06
2.38876e-05
5.58165e-06
3.47189e-07
1.98714e-07
4.12825e-06
1.36351e-05
2.57426e-05
2.59386e-05
2.45057e-05
2.39687e-05
2.45917e-05
2.71895e-05
3.17798e-05
3.79105e-05
4.41774e-05
5.03178e-05
5.55571e-05
5.91539e-05
6.05651e-05
5.95919e-05
5.85907e-05
5.75645e-05
5.65132e-05
5.40148e-05
5.05825e-05
4.51283e-05
3.38605e-05
1.7976e-05
8.44434e-06
4.6457e-06
3.3456e-06
3.11484e-06
3.52647e-06
4.92407e-06
9.45419e-06
2.41612e-05
5.49657e-06
3.48835e-07
1.99679e-07
4.19265e-06
1.39847e-05
2.6184e-05
2.66512e-05
2.48751e-05
2.37708e-05
2.51551e-05
2.8888e-05
3.29529e-05
3.79943e-05
4.44245e-05
5.07888e-05
5.61668e-05
5.97902e-05
6.09311e-05
5.99452e-05
5.89345e-05
5.78996e-05
5.68385e-05
5.4512e-05
5.10182e-05
4.54532e-05
3.39624e-05
1.78404e-05
8.41431e-06
4.70371e-06
3.39833e-06
3.12281e-06
3.52518e-06
4.92195e-06
9.38395e-06
2.43456e-05
5.5301e-06
3.48602e-07
2.02052e-07
4.24746e-06
1.41698e-05
2.66276e-05
2.70324e-05
2.48856e-05
2.41576e-05
2.57818e-05
2.89162e-05
3.27092e-05
3.79987e-05
4.46863e-05
5.20167e-05
5.77636e-05
6.06912e-05
6.13082e-05
6.03163e-05
5.93024e-05
5.82619e-05
5.71895e-05
5.5443e-05
5.19162e-05
4.6163e-05
3.39278e-05
1.73531e-05
8.22787e-06
4.68247e-06
3.4893e-06
3.20234e-06
3.54563e-06
4.96856e-06
9.52469e-06
2.47611e-05
5.59778e-06
3.51963e-07
2.04799e-07
4.2891e-06
1.44251e-05
2.7003e-05
2.71159e-05
2.52629e-05
2.48054e-05
2.60462e-05
2.87032e-05
3.26644e-05
3.87321e-05
4.62256e-05
5.35839e-05
5.93769e-05
6.25489e-05
6.16045e-05
6.06104e-05
5.95831e-05
5.85211e-05
5.74187e-05
5.62702e-05
5.33317e-05
4.75123e-05
3.42834e-05
1.66375e-05
7.63107e-06
4.5017e-06
3.56363e-06
3.40163e-06
3.6576e-06
4.89969e-06
9.73091e-06
2.49928e-05
5.64552e-06
3.51812e-07
2.0731e-07
4.31717e-06
1.45652e-05
2.73741e-05
2.72916e-05
2.5736e-05
2.51706e-05
2.61383e-05
2.89593e-05
3.3161e-05
3.88893e-05
4.67717e-05
5.49989e-05
6.12979e-05
6.26096e-05
6.16793e-05
6.07054e-05
5.9702e-05
5.86571e-05
5.75608e-05
5.64008e-05
5.47421e-05
4.90155e-05
3.43323e-05
1.57002e-05
7.04159e-06
4.1543e-06
3.32622e-06
3.42377e-06
4.08028e-06
5.85717e-06
1.13815e-05
2.50872e-05
5.58389e-06
3.37898e-07
2.0926e-07
4.30781e-06
1.44048e-05
2.70424e-05
2.71856e-05
2.55274e-05
2.4927e-05
2.58153e-05
2.8272e-05
3.25299e-05
3.8863e-05
4.73326e-05
5.64408e-05
6.39095e-05
6.30411e-05
6.2105e-05
6.1123e-05
6.00959e-05
5.90191e-05
5.78886e-05
5.66962e-05
5.54375e-05
4.94019e-05
3.43269e-05
1.62893e-05
7.29369e-06
4.13952e-06
3.20633e-06
3.33534e-06
4.05867e-06
5.71814e-06
1.09822e-05
2.45956e-05
5.43596e-06
3.33122e-07
2.11501e-07
4.24827e-06
1.39604e-05
2.63176e-05
2.68837e-05
2.53762e-05
2.46407e-05
2.52433e-05
2.72856e-05
3.09474e-05
3.65413e-05
4.41962e-05
5.32431e-05
6.15459e-05
6.32549e-05
6.22953e-05
6.12913e-05
6.02491e-05
5.91626e-05
5.80252e-05
5.68241e-05
5.55528e-05
5.07914e-05
3.68686e-05
1.71055e-05
7.24553e-06
4.02711e-06
3.15082e-06
3.32275e-06
4.02148e-06
5.67124e-06
1.11042e-05
2.42724e-05
5.38384e-06
3.36408e-07
2.152e-07
4.20412e-06
1.36153e-05
2.61042e-05
2.69635e-05
2.53946e-05
2.44832e-05
2.48868e-05
2.6725e-05
3.01596e-05
3.54252e-05
4.25589e-05
5.10098e-05
5.90927e-05
6.34846e-05
6.25285e-05
6.15234e-05
6.04756e-05
5.93809e-05
5.823e-05
5.7006e-05
5.57e-05
5.10946e-05
3.75461e-05
1.68172e-05
6.88162e-06
3.93688e-06
3.08409e-06
3.22445e-06
4.19326e-06
6.08632e-06
1.11692e-05
2.43812e-05
5.48673e-06
3.35532e-07
2.1675e-07
4.18867e-06
1.35386e-05
2.64968e-05
2.73963e-05
2.5585e-05
2.47111e-05
2.52608e-05
2.70075e-05
3.02401e-05
3.53534e-05
4.21936e-05
5.00023e-05
5.71668e-05
6.27132e-05
6.284e-05
6.18217e-05
6.07637e-05
5.9658e-05
5.84966e-05
5.72637e-05
5.42774e-05
4.98592e-05
3.63918e-05
1.60122e-05
6.72579e-06
4.06696e-06
3.21396e-06
3.29167e-06
4.20811e-06
6.03859e-06
1.16172e-05
2.38417e-05
5.42595e-06
3.18017e-07
2.17162e-07
4.14534e-06
1.35407e-05
2.67032e-05
2.76556e-05
2.57072e-05
2.45247e-05
2.48163e-05
2.68426e-05
3.04823e-05
3.55548e-05
4.22379e-05
5.00337e-05
5.73846e-05
6.19772e-05
6.32281e-05
6.2229e-05
6.11866e-05
6.01036e-05
5.89776e-05
5.62575e-05
5.26523e-05
4.77615e-05
3.76231e-05
1.92949e-05
7.99832e-06
4.48643e-06
3.21288e-06
3.14167e-06
4.00508e-06
5.79819e-06
1.11616e-05
2.38994e-05
5.44464e-06
3.07551e-07
2.16149e-07
4.05613e-06
1.31814e-05
2.66039e-05
2.77086e-05
2.58818e-05
2.45482e-05
2.50264e-05
2.74181e-05
3.10531e-05
3.57304e-05
4.15971e-05
4.85522e-05
5.58551e-05
6.07223e-05
6.27013e-05
6.26579e-05
6.16257e-05
6.05313e-05
5.80941e-05
5.50791e-05
5.14579e-05
4.64318e-05
3.71808e-05
2.15568e-05
9.56811e-06
4.92229e-06
3.3618e-06
3.12092e-06
3.72236e-06
5.30679e-06
9.69611e-06
2.33782e-05
5.48556e-06
3.08749e-07
2.14962e-07
4.03857e-06
1.30447e-05
2.65182e-05
2.79505e-05
2.60761e-05
2.47875e-05
2.50313e-05
2.70658e-05
3.13634e-05
3.67138e-05
4.26888e-05
4.88872e-05
5.46617e-05
5.93166e-05
6.21891e-05
6.30601e-05
6.20332e-05
6.0797e-05
5.833e-05
5.53199e-05
5.17035e-05
4.69036e-05
3.93079e-05
2.61924e-05
1.26024e-05
5.8508e-06
3.51697e-06
3.01799e-06
3.42752e-06
4.63852e-06
8.14481e-06
2.21377e-05
5.67722e-06
3.27205e-07