/*--------------------------------*- C++ -*----------------------------------*\
| =========                 |                                                 |
| \\      /  F ield         | OpenFOAM: The Open Source CFD Toolbox           |
|  \\    /   O peration     | Version:  2.0.x                                 |
|   \\  /    A nd           | Web:      www.OpenFOAM.org                      |
|    \\/     M anipulation  |                                                 |
\*---------------------------------------------------------------------------*/
FoamFile
{
    version     2.0;
    format      ascii;
    class       volScalarField;
    location    "100";
    object      omega;
}
// * * * * * * * * * * * * * * * * * * * * * * * * * * * * * * * * * * * * * //

dimensions      [0 0 -1 0 0 0 0];

internalField   nonuniform List<scalar> 
78750
(
1024.39
4.11553
4.2158
4.30678
4.37547
4.42354
4.4971
4.5383
4.5628
4.5725
4.58466
4.58423
4.58324
4.58109
4.57759
4.57423
4.57098
4.56774
4.5647
4.56077
4.55743
4.55457
4.55438
4.55326
4.55598
4.5574
4.56032
4.56319
4.56843
4.56957
4.57087
4.57196
4.5726
4.55138
1094.29
1024.46
4.36699
4.59788
4.75851
4.84556
4.89973
4.8868
4.85989
4.82697
4.79126
4.75446
4.72045
4.69073
4.6673
4.65381
4.6404
4.62752
4.61506
4.60341
4.59272
4.58314
4.57479
4.56803
4.56289
4.55955
4.55837
4.5585
4.55919
4.56133
4.56457
4.56676
4.57233
4.58709
4.65992
1095.01
1024.75
4.70475
4.89667
4.96749
4.98225
4.95318
4.86945
4.75408
4.63038
4.52357
4.44872
4.40375
4.38421
4.38286
4.39904
4.43286
4.46916
4.50044
4.52341
4.53833
4.54697
4.55137
4.55319
4.55374
4.55363
4.55245
4.55203
4.5526
4.55529
4.56106
4.57182
4.5896
4.665
4.88861
1095.39
1024.94
4.79565
4.9276
4.98952
4.99847
4.95315
4.85495
4.72947
4.60469
4.5016
4.42959
4.38834
4.37578
4.37911
4.3943
4.4156
4.43852
4.4597
4.47759
4.49195
4.50324
4.51209
4.51913
4.52489
4.52966
4.53371
4.53774
4.54267
4.55
4.5619
4.58407
4.63815
4.7689
5.02792
1095.48
1024.99
4.83673
4.99521
5.07873
5.10488
5.07243
4.98655
4.86483
4.72917
4.60064
4.49465
4.41944
4.37538
4.36152
4.36082
4.37171
4.38873
4.40728
4.42515
4.4414
4.45575
4.46831
4.47934
4.48916
4.49805
4.5064
4.51477
4.52419
4.53667
4.55669
4.59415
4.67332
4.83871
5.11886
1095.58
1024.98
4.84062
5.00823
5.10169
5.14667
5.14994
5.10883
5.03069
4.92615
4.80791
4.68872
4.57939
4.48774
4.41766
4.36937
4.34009
4.32584
4.32362
4.32924
4.33962
4.35301
4.36853
4.38544
4.4034
4.4225
4.44307
4.46571
4.49126
4.52093
4.55699
4.61552
4.7239
4.91507
5.20411
1095.69
1024.98
4.86735
5.05741
5.15969
5.21133
5.22034
5.19048
5.13067
5.05099
4.96033
4.86635
4.77534
4.69216
4.6196
4.55673
4.50145
4.4536
4.4136
4.38139
4.35689
4.33938
4.32784
4.32188
4.32174
4.32689
4.33892
4.35832
4.38803
4.43256
4.49936
4.59378
4.73172
4.95051
5.26816
1095.82
1024.99
4.88809
5.08988
5.19919
5.25757
5.27497
5.25343
5.20112
5.12916
5.04812
4.96667
4.89085
4.82403
4.76707
4.7179
4.67374
4.6335
4.5968
4.56319
4.53209
4.50277
4.47458
4.44706
4.42021
4.3953
4.37511
4.36525
4.37421
4.41034
4.48206
4.59835
4.76485
5.01796
5.35515
1095.92
1025
4.92079
5.13759
5.25359
5.31616
5.33953
5.3266
5.28463
5.22343
5.15256
5.08035
5.01298
4.95392
4.9039
4.86108
4.82309
4.78888
4.75808
4.73011
4.70421
4.67917
4.65383
4.62709
4.59799
4.56485
4.52564
4.4824
4.44648
4.44301
4.48975
4.61532
4.81882
5.08167
5.40582
1095.96
1025
4.94499
5.17526
5.29749
5.3633
5.39067
5.38305
5.34752
5.29381
5.23101
5.16687
5.10722
5.05527
5.01158
4.97404
4.94059
4.91061
4.88383
4.85975
4.83771
4.8169
4.79647
4.77562
4.75358
4.72811
4.69502
4.651
4.60078
4.55864
4.55456
4.62059
4.81102
5.0918
5.46043
1096.2
1025.02
4.98136
5.22328
5.34982
5.41681
5.4451
5.43928
5.40674
5.35697
5.29884
5.2397
5.18509
5.13792
5.09851
5.06448
5.03402
5.00691
4.98285
4.96138
4.94189
4.92369
4.90608
4.8884
4.87
4.84943
4.82398
4.78897
4.74241
4.69353
4.65599
4.67013
4.81228
5.12004
5.56649
1096.51
1025.04
5.01517
5.26823
5.39933
5.4667
5.49523
5.49099
5.46124
5.4151
5.36087
5.30541
5.25401
5.20961
5.17249
5.14029
5.11143
5.08584
5.06322
5.04309
5.02487
5.00785
4.99123
4.97423
4.9562
4.93589
4.91002
4.87314
4.82266
4.77075
4.73089
4.73948
4.83897
5.17901
5.6689
1096.61
1025.07
5.05309
5.31702
5.45082
5.51681
5.54254
5.53683
5.5073
5.46301
5.41187
5.35997
5.31176
5.26981
5.23458
5.20405
5.17679
5.15269
5.13149
5.11276
5.09594
5.08035
5.06518
5.04951
5.03227
5.0112
4.9812
4.93574
4.87292
4.80822
4.77775
4.81108
4.97291
5.31631
5.7666
1096.62
1025.09
5.09135
5.36478
5.50057
5.56592
5.58947
5.58325
5.55475
5.51272
5.46447
5.41553
5.36972
5.32914
5.29455
5.26488
5.2388
5.21592
5.19603
5.17878
5.16374
5.1504
5.13815
5.12629
5.11351
5.09721
5.07301
5.03427
4.97243
4.89343
4.84667
4.87399
5.04517
5.37898
5.80686
1096.73
1025.12
5.13496
5.41255
5.54744
5.61075
5.63158
5.62228
5.59254
5.55103
5.50467
5.45837
5.41526
5.37676
5.34325
5.31456
5.28983
5.26839
5.25008
5.23462
5.22168
5.21084
5.20166
5.19333
5.1847
5.17393
5.15791
5.13148
5.0854
5.01243
4.94962
4.95301
5.07542
5.43075
5.91913
1097.16
1025.17
5.18366
5.46112
5.59374
5.65496
5.67371
5.66207
5.63133
5.59005
5.54466
5.49965
5.45779
5.42034
5.38752
5.35909
5.33474
5.31419
5.29716
5.28342
5.27271
5.26468
5.25873
5.25423
5.25006
5.24452
5.23461
5.21532
5.17902
5.11605
5.05304
5.03546
5.1303
5.4959
6.04878
1097.49
1025.23
5.23564
5.50685
5.63456
5.69249
5.70859
5.69473
5.66139
5.61928
5.57427
5.53028
5.48958
5.4532
5.42133
5.39378
5.37032
5.3508
5.33514
5.32329
5.31524
5.3107
5.30872
5.30931
5.31066
5.31068
5.30637
5.29012
5.25293
5.18821
5.12675
5.12254
5.24238
5.63512
6.19646
1097.6
1025.31
5.29003
5.55101
5.67312
5.72818
5.74258
5.72747
5.69189
5.64864
5.60324
5.55923
5.51856
5.48219
5.4503
5.42282
5.39965
5.38078
5.36634
5.35655
5.35173
5.35185
5.35649
5.36594
5.37532
5.38062
5.37972
5.36486
5.322
5.24984
5.18769
5.20133
5.36985
5.76646
6.28329
1097.57
1025.4
5.34164
5.58991
5.70604
5.7581
5.77055
5.7541
5.7168
5.67156
5.62527
5.58105
5.54045
5.50425
5.47257
5.44539
5.42264
5.40445
5.39114
5.38334
5.38172
5.3867
5.40025
5.41746
5.4352
5.44916
5.4508
5.43817
5.38623
5.30678
5.25179
5.28216
5.50399
5.88884
6.35314
1097.52
1025.49
5.39159
5.6263
5.73664
5.7861
5.79699
5.77926
5.74055
5.69286
5.64516
5.60026
5.55933
5.52294
5.49114
5.46388
5.44115
5.42317
5.41051
5.40401
5.4056
5.41657
5.43722
5.46423
5.49342
5.52004
5.52903
5.51212
5.44063
5.35005
5.30319
5.36066
5.627
6.00049
6.40255
1097.34
1025.58
5.43615
5.65762
5.76283
5.81019
5.81984
5.80075
5.76091
5.71192
5.66314
5.61789
5.57686
5.54038
5.50848
5.4811
5.45823
5.44016
5.42766
5.42205
5.42553
5.4415
5.46951
5.50812
5.55292
5.59685
5.62141
5.60361
5.51622
5.41853
5.38697
5.47136
5.74594
6.07203
6.38736
1097.14
1025.66
5.47382
5.68352
5.78491
5.83139
5.84106
5.82218
5.78247
5.73312
5.68293
5.63681
5.59526
5.5583
5.5259
5.49797
5.47443
5.45556
5.44219
5.43609
5.44042
5.45967
5.49515
5.54853
5.61711
5.68504
5.73827
5.72917
5.62984
5.50277
5.44097
5.52295
5.80607
6.10653
6.37596
1097.09
1025.75
5.50897
5.70769
5.80626
5.85207
5.86139
5.84153
5.80088
5.75052
5.69903
5.65215
5.61039
5.57321
5.54053
5.51216
5.48796
5.46814
5.45361
5.44661
5.45176
5.47356
5.51533
5.58168
5.67614
5.81082
5.92464
5.92957
5.82198
5.65557
5.56644
5.63238
5.88417
6.14385
6.36882
1096.99
1025.81
5.53177
5.72267
5.81982
5.86634
5.87727
5.8588
5.81965
5.77038
5.71936
5.67207
5.62968
5.59171
5.55807
5.5285
5.50273
5.48077
5.46327
5.45205
5.45028
5.46082
5.49663
5.56773
5.68287
5.85292
6.03381
6.10684
6.00562
5.77166
5.63525
5.71637
5.95231
6.17495
6.35172
1096.83
1025.87
5.5527
5.73922
5.83653
5.88441
5.8972
5.88041
5.84232
5.7932
5.74132
5.69252
5.64911
5.61028
5.57567
5.54496
5.51775
5.49392
5.47399
5.45985
5.45516
5.45524
5.47557
5.53294
5.64474
5.83692
6.08977
6.2655
6.24629
6.04135
5.805
5.80195
6.00569
6.192
6.31801
1096.65
1025.9
5.56498
5.74857
5.84633
5.89559
5.90995
5.89435
5.8572
5.80866
5.75705
5.708
5.66429
5.62511
5.58978
5.55802
5.52944
5.50378
5.48123
5.46337
5.45449
5.44936
5.4527
5.48359
5.57294
5.75487
6.02541
6.29158
6.39311
6.27199
6.04072
5.95158
6.05947
6.19383
6.26554
1096.51
1025.92
5.57621
5.7602
5.86036
5.91178
5.92837
5.91439
5.87844
5.8305
5.77861
5.72873
5.68417
5.64447
5.60863
5.57621
5.54676
5.5198
5.49511
5.473
5.45538
5.44743
5.44354
5.45705
5.51273
5.65936
5.91003
6.19294
6.37279
6.37366
6.22699
6.11217
6.133
6.20613
6.2563
1096.51
1025.94
5.58294
5.76646
5.86839
5.91922
5.93751
5.92543
5.89139
5.84487
5.79378
5.74407
5.69932
5.65943
5.62332
5.59038
5.56003
5.53189
5.50579
5.48202
5.46175
5.44866
5.44132
5.44391
5.47894
5.5974
5.84351
6.13677
6.35105
6.40327
6.33222
6.23815
6.20889
6.22869
6.25205
1096.57
1025.94
5.56211
5.77178
5.88328
5.93402
5.9534
5.94286
5.91031
5.8651
5.8146
5.76462
5.71901
5.67821
5.64125
5.60739
5.57582
5.54627
5.51853
5.49263
5.46932
5.45058
5.44134
5.43925
5.46541
5.56659
5.80229
6.11996
6.3621
6.45152
6.38364
6.30258
6.26634
6.26667
6.27434
1096.54
1025.92
5.5667
5.76794
5.87825
5.93527
5.95592
5.95081
5.92198
5.87884
5.82946
5.77967
5.73355
5.69205
5.65368
5.61823
5.58574
5.55547
5.52701
5.50014
5.47528
5.45361
5.43787
5.43418
5.43754
5.49391
5.66342
5.95175
6.27065
6.43552
6.45867
6.39
6.30942
6.27394
6.25745
1096.41
1025.9
5.56343
5.76069
5.8876
5.95065
5.96976
5.96402
5.93749
5.89683
5.84918
5.80075
5.7553
5.71432
5.6769
5.6424
5.61015
5.57975
5.55074
5.52284
5.49616
5.47122
5.44946
5.43362
5.43495
5.45454
5.51926
5.7155
6.01666
6.27585
6.41238
6.42459
6.38513
6.33797
6.27692
1096.41
1025.91
5.56347
5.76499
5.87897
5.95046
5.97366
5.9741
5.95089
5.91239
5.8666
5.8194
5.77436
5.73305
5.69467
5.65887
5.62523
5.59339
5.56294
5.53372
5.50574
5.4798
5.45709
5.43914
5.43072
5.44602
5.49351
5.59187
5.78839
6.03864
6.24498
6.36245
6.36865
6.33342
6.28028
1096.52
1025.91
5.56591
5.76355
5.88615
5.95484
5.98444
5.98695
5.96324
5.92382
5.8799
5.83589
5.7939
5.75386
5.71555
5.67951
5.64559
5.61329
5.5821
5.55158
5.52171
5.49308
5.46673
5.44473
5.4333
5.44791
5.51063
5.62232
5.77119
5.9505
6.13397
6.28212
6.34071
6.34635
6.31056
1096.52
1025.88
5.55228
5.76819
5.88119
5.94923
5.98797
5.99734
5.981
5.94554
5.90053
5.85481
5.8114
5.77018
5.73095
5.69388
5.65881
5.62528
5.59283
5.56109
5.52972
5.49879
5.46964
5.44335
5.42227
5.40948
5.44492
5.58021
5.76709
5.94253
6.10005
6.23339
6.30562
6.32282
6.29221
1096.46
1025.88
5.55353
5.77068
5.8887
5.95448
5.99294
6.00312
5.9895
5.95716
5.91373
5.86806
5.82452
5.78387
5.74567
5.70949
5.67498
5.64184
5.60981
5.5787
5.54849
5.51914
5.49034
5.46146
5.43194
5.40875
5.40958
5.4725
5.64944
5.86337
6.04362
6.18595
6.2746
6.30332
6.28172
1096.45
1025.86
5.55267
5.7688
5.89655
5.95926
5.9971
6.0081
5.99733
5.9689
5.92833
5.88535
5.84315
5.80241
5.7638
5.72744
5.69287
5.6596
5.62728
5.59566
5.5647
5.53458
5.50578
5.47842
5.45122
5.42282
5.40655
5.42685
5.53798
5.74396
5.95492
6.12828
6.23997
6.2876
6.28883
1096.5
1025.84
5.54997
5.7712
5.90038
5.96626
6.00287
6.01146
6.00037
5.97529
5.93391
5.8919
5.85183
5.81313
5.77607
5.74069
5.70702
5.67421
5.6421
5.61055
5.57956
5.54929
5.52013
5.49229
5.46531
5.43939
5.41835
5.41777
5.47985
5.64442
5.85481
6.05805
6.20755
6.2743
6.28709
1096.58
1025.81
5.54622
5.77524
5.90649
5.981
6.01608
6.01869
6.00089
5.97084
5.93293
5.89349
5.85651
5.82074
5.78593
5.75216
5.71924
5.68728
5.65595
5.62433
5.59273
5.56159
5.5315
5.50298
5.47571
5.45055
5.43529
5.4381
5.47994
5.62137
5.81736
6.03223
6.20051
6.27957
6.29686
1096.65
1025.8
5.54149
5.78128
5.91554
5.9926
6.03179
6.03685
6.0152
5.97917
5.93987
5.90161
5.86499
5.82978
5.79552
5.76219
5.72953
5.69722
5.66511
5.63318
5.60125
5.56937
5.53802
5.50784
5.4795
5.45497
5.4454
5.46366
5.51564
5.62501
5.80543
6.02315
6.19552
6.28315
6.30837
1096.72
1025.81
5.55042
5.7929
5.92863
6.00649
6.04693
6.0545
6.03698
6.00305
5.96127
5.91907
5.87924
5.84215
5.80728
5.7738
5.74112
5.70866
5.67625
5.64369
5.6109
5.57776
5.5443
5.51046
5.47588
5.43572
5.41795
5.4547
5.54901
5.67465
5.8281
6.02682
6.19715
6.28873
6.3406
1096.75
1025.82
5.55877
5.80283
5.94015
6.01955
6.06084
6.06806
6.04945
6.01521
5.97529
5.93474
5.89571
5.85847
5.82234
5.78734
5.75358
5.72049
5.68752
5.65452
5.62134
5.58765
5.55293
5.51656
5.47627
5.43456
5.40305
5.43136
5.53811
5.68803
5.84189
6.03538
6.20886
6.29937
6.34183
1096.74
1025.82
5.56259
5.81249
5.9528
6.03457
6.07778
6.08693
6.06902
6.03354
5.99046
5.94781
5.90757
5.86982
5.83431
5.80039
5.76696
5.7335
5.69984
5.66592
5.6316
5.59666
5.56086
5.52327
5.48
5.42957
5.3944
5.42709
5.55624
5.73922
5.91522
6.05846
6.2135
6.29743
6.32099
1096.65
1025.83
5.56735
5.8184
5.9612
6.04339
6.08749
6.09704
6.08004
6.04655
6.00578
5.96479
5.92539
5.88783
5.85208
5.81768
5.78357
5.74935
5.71504
5.68052
5.64558
5.60973
5.5727
5.53331
5.48765
5.43347
5.39511
5.40999
5.53272
5.72191
5.91221
6.10003
6.2286
6.29674
6.30811
1096.6
1025.83
5.56973
5.82521
5.97027
6.05555
6.10234
6.11412
6.09865
6.06574
6.02483
5.98296
5.94257
5.90405
5.86782
5.83331
5.79938
5.76548
5.73154
5.69744
5.66302
5.62813
5.59223
5.55401
5.50946
5.45445
5.40226
5.40291
5.49958
5.68034
5.88859
6.08411
6.21818
6.28529
6.30519
1096.58
1025.82
5.57244
5.83124
5.97827
6.06493
6.113
6.12638
6.11244
6.08092
6.0419
6.00204
5.96356
5.92676
5.89125
5.85698
5.82325
5.78947
5.75564
5.72162
5.68725
5.65223
5.61576
5.57652
5.53126
5.47535
5.41706
5.40159
5.47163
5.63891
5.84378
6.04917
6.20227
6.27764
6.30328
1096.57
1025.81
5.57227
5.83627
5.98666
6.07624
6.12712
6.14303
6.13094
6.10052
6.06195
6.0224
5.98363
5.94659
5.91105
5.87667
5.84301
5.80943
5.77581
5.7421
5.70826
5.67392
5.63817
5.59968
5.55552
5.50045
5.43681
5.40434
5.44906
5.60844
5.81225
6.02231
6.18985
6.28197
6.30383
1096.58
1025.8
5.57486
5.84138
5.99372
6.08513
6.1377
6.15563
6.14524
6.11637
6.07885
6.04008
6.00251
5.96642
5.93146
5.89734
5.86395
5.83073
5.7974
5.76399
5.73051
5.69654
5.6613
5.62367
5.58086
5.52729
5.4603
5.39971
5.4089
5.55055
5.75902
5.97982
6.16505
6.27635
6.31303
1096.73
1025.8
5.5769
5.8461
6.00194
6.09575
6.15064
6.17052
6.16163
6.13369
6.09639
6.05766
6.02031
5.98457
5.94991
5.91579
5.88216
5.84874
5.81535
5.78192
5.74836
5.71424
5.67897
5.64173
5.60015
5.54864
5.48185
5.41038
5.38092
5.46869
5.66784
5.91101
6.14002
6.26309
6.32424
1096.84
1025.8
5.57942
5.84992
6.00616
6.10127
6.1583
6.18028
6.17461
6.14934
6.1143
6.07724
6.04067
6.00507
5.97012
5.93586
5.9021
5.86846
5.83475
5.80091
5.76688
5.73225
5.6965
5.65886
5.61708
5.56515
5.49683
5.42169
5.38243
5.45374
5.64658
5.90104
6.13306
6.28032
6.36505
1096.86
1025.81
5.58258
5.85659
6.0151
6.11132
6.16874
6.1915
6.18767
6.16535
6.13212
6.09507
6.05827
6.02282
5.98807
5.95392
5.92006
5.88611
5.85198
5.81758
5.78286
5.74757
5.71124
5.67306
5.63061
5.5779
5.51015
5.43757
5.39345
5.45624
5.6451
5.89129
6.14191
6.27216
6.36852
1096.85
1025.81
5.58666
5.8586
6.01827
6.11702
6.17543
6.19769
6.1946
6.1741
6.14435
6.11109
6.07712
6.04289
6.0083
5.97404
5.93991
5.90562
5.8712
5.83644
5.8012
5.76532
5.72837
5.68956
5.64639
5.59297
5.5261
5.46065
5.42196
5.47813
5.65459
5.90827
6.1513
6.29512
6.37345
1096.82
1025.83
5.59245
5.86385
6.02495
6.12729
6.18604
6.20751
6.20571
6.18638
6.15726
6.12467
6.09156
6.0584
6.02507
5.99189
5.95836
5.9242
5.88955
5.85429
5.81832
5.78144
5.74316
5.70255
5.65704
5.60077
5.53263
5.47233
5.44371
5.49904
5.65467
5.90771
6.15304
6.29422
6.36221
1096.79
1025.84
5.60332
5.87091
6.02561
6.1224
6.18564
6.20946
6.21222
6.19701
6.1707
6.14049
6.10897
6.07658
6.04348
6.01021
5.97636
5.94182
5.90677
5.87101
5.8343
5.79644
5.75702
5.71501
5.66736
5.60749
5.53688
5.47939
5.47424
5.54716
5.69292
5.91013
6.15293
6.2957
6.35998
1096.78
1025.85
5.6101
5.87876
6.03211
6.12724
6.18599
6.21482
6.21836
6.20516
6.18275
6.15541
6.12534
6.09333
6.06067
6.02769
5.99387
5.95918
5.92383
5.88766
5.85045
5.81183
5.77106
5.72681
5.6752
5.60741
5.52197
5.45433
5.4666
5.58324
5.74867
5.96001
6.18396
6.2857
6.33886
1096.69
1025.83
5.60438
5.88061
6.03793
6.13543
6.19707
6.22628
6.22995
6.21665
6.19409
6.16744
6.13927
6.11016
6.07951
6.04712
6.01296
5.97759
5.94135
5.90418
5.86595
5.8262
5.78395
5.73766
5.68258
5.60981
5.52122
5.45735
5.47199
5.61266
5.81006
6.01606
6.17669
6.26608
6.29857
1096.58
1025.82
5.61245
5.89049
6.05322
6.15485
6.21924
6.25
6.25427
6.24049
6.21663
6.18899
6.15995
6.1298
6.09837
6.06535
6.03057
5.99461
5.95791
5.92039
5.88197
5.84236
5.80061
5.75508
5.70196
5.63304
5.54497
5.46752
5.46729
5.59605
5.789
5.99726
6.16809
6.25925
6.29046
1096.58
1025.83
5.61945
5.90814
6.07138
6.17181
6.23489
6.265
6.26902
6.25557
6.23257
6.20561
6.17703
6.14732
6.11626
6.0835
6.04899
6.0132
5.97659
5.93922
5.901
5.86173
5.82071
5.77635
5.72483
5.65848
5.57228
5.48588
5.46149
5.56851
5.75581
5.96753
6.152
6.25928
6.29107
1096.64
1025.84
5.63417
5.92251
6.08567
6.18664
6.25096
6.28256
6.28796
6.27567
6.25274
6.22582
6.19728
6.16719
6.1353
6.10186
6.06689
6.03056
5.99338
5.95544
5.91678
5.87727
5.8362
5.79217
5.7421
5.67848
5.59304
5.4996
5.45163
5.52744
5.7068
5.93312
6.14691
6.25162
6.29856
1096.72
1025.85
5.64847
5.94177
6.10583
6.20621
6.26966
6.30128
6.30661
6.29371
6.27031
6.243
6.21391
6.1833
6.15098
6.11703
6.08161
6.04496
6.00756
5.96953
5.93086
5.8913
5.85004
5.80567
5.75501
5.69019
5.60309
5.50752
5.45266
5.51491
5.68975
5.92044
6.13918
6.26276
6.30976
1096.73
1025.86
5.66429
5.96024
6.12386
6.22252
6.28312
6.31261
6.3182
6.30764
6.28625
6.25885
6.22919
6.19824
6.16549
6.131
6.09503
6.05792
6.0202
5.98188
5.94288
5.90295
5.86135
5.8168
5.76627
5.70253
5.61678
5.52285
5.46432
5.52349
5.69988
5.93431
6.15137
6.26485
6.32281
1096.73
1025.88
5.68177
5.98023
6.14541
6.24451
6.30384
6.32982
6.33219
6.31994
6.29888
6.27339
6.24535
6.21471
6.18146
6.14611
6.10946
6.07203
6.0341
5.9955
5.95603
5.91546
5.87322
5.82809
5.77684
5.7115
5.62559
5.53936
5.49435
5.53855
5.69788
5.93274
6.15158
6.27193
6.33364
1096.76
1025.9
5.69954
6.00051
6.16682
6.26658
6.32572
6.34887
6.34506
6.32733
6.30338
6.27732
6.25055
6.22179
6.19068
6.15691
6.12081
6.08319
6.04464
6.00513
5.9645
5.92246
5.8788
5.83242
5.7796
5.71184
5.61972
5.53873
5.51829
5.58232
5.72074
5.94734
6.15642
6.26518
6.33264
1096.76
1025.92
5.71563
6.01927
6.18765
6.28955
6.35089
6.37571
6.37103
6.34705
6.31461
6.28169
6.25195
6.22286
6.19239
6.15917
6.12369
6.0869
6.04938
6.01065
5.9703
5.92792
5.88335
5.83601
5.78142
5.71003
5.61415
5.52473
5.51412
5.63184
5.80567
5.99682
6.17485
6.26207
6.30634
1096.65
1025.93
5.72922
6.03597
6.20766
6.31204
6.37547
6.40207
6.3992
6.37635
6.34287
6.30647
6.27188
6.23978
6.20841
6.17529
6.14011
6.10327
6.06492
6.02498
5.98338
5.93986
5.89427
5.84603
5.79031
5.71698
5.61842
5.52163
5.49428
5.60634
5.79208
5.99283
6.16404
6.24685
6.28077
1096.63
1025.95
5.73901
6.0487
6.22425
6.33135
6.39673
6.42468
6.42198
6.39809
6.36279
6.32414
6.28725
6.25285
6.21983
6.18544
6.14892
6.11095
6.07181
6.03135
5.98933
5.9453
5.89907
5.85054
5.79568
5.72321
5.62391
5.52411
5.48651
5.58789
5.77628
5.99019
6.15536
6.23728
6.27332
1096.65
1025.98
5.74777
6.06
6.23866
6.34775
6.41452
6.44356
6.4409
6.41591
6.37872
6.33774
6.2984
6.26235
6.22836
6.19399
6.15782
6.11994
6.08069
6.03997
5.9975
5.95272
5.90531
5.85501
5.79793
5.72317
5.62151
5.52221
5.49368
5.60054
5.78547
5.98368
6.1438
6.22936
6.27211
1096.65
1025.99
5.75307
6.06625
6.24691
6.35738
6.42442
6.45472
6.45305
6.4291
6.39293
6.35281
6.31385
6.27754
6.24255
6.20715
6.1703
6.13179
6.09203
6.05079
6.00782
5.96256
5.91471
5.86317
5.80409
5.72688
5.62495
5.53171
5.51875
5.62208
5.79704
5.98439
6.14068
6.22362
6.25251
1096.52
1025.99
5.75564
6.07002
6.25396
6.36702
6.43566
6.46792
6.46705
6.44281
6.40624
6.36579
6.32661
6.29045
6.25594
6.22126
6.18514
6.14729
6.10807
6.06757
6.02574
5.98216
5.93593
5.88583
5.8291
5.75771
5.66284
5.5632
5.53453
5.61664
5.78174
5.96819
6.12269
6.19824
6.21265
1096.45
1025.99
5.72641
6.04191
6.23574
6.36417
6.44065
6.47901
6.48254
6.46119
6.42593
6.38544
6.34531
6.30798
6.27259
6.23747
6.20137
6.1638
6.12483
6.08463
6.04321
5.9999
5.9539
5.90432
5.8486
5.7803
5.69091
5.58774
5.53547
5.59137
5.74792
5.93143
6.08987
6.17085
6.20167
1096.46
1025.98
5.72164
6.03937
6.23624
6.36434
6.45004
6.49338
6.49941
6.47909
6.44393
6.40344
6.36316
6.32527
6.28915
6.25346
6.21701
6.17938
6.14047
6.10045
6.05937
6.01658
5.97163
5.92386
5.87139
5.80916
5.72762
5.62377
5.53447
5.54716
5.68728
5.87568
6.05302
6.15381
6.20875
1096.6
1025.97
5.7005
6.02244
6.22887
6.36603
6.45765
6.50705
6.51697
6.50098
6.46765
6.42629
6.38417
6.34423
6.30632
6.26894
6.2309
6.19171
6.15151
6.11051
6.06862
6.02522
5.97986
5.93184
5.8791
5.81616
5.73329
5.62771
5.53067
5.51339
5.63173
5.81894
6.01195
6.13092
6.20089
1096.61
1025.96
5.69108
6.01292
6.22214
6.3688
6.46702
6.52116
6.53498
6.52145
6.48881
6.44513
6.4015
6.36014
6.32058
6.28105
6.24108
6.2005
6.15939
6.11804
6.07644
6.03339
5.98844
5.94139
5.88976
5.8282
5.74719
5.64246
5.54033
5.51266
5.62181
5.80327
5.99755
6.11987
6.18803
1096.55
1025.93
5.68264
5.99924
6.20422
6.34357
6.44639
6.51323
6.54008
6.53174
6.50052
6.45725
6.41269
6.37054
6.32986
6.28916
6.24796
6.20613
6.16389
6.1217
6.08029
6.03804
5.99425
5.94881
5.89911
5.84195
5.76857
5.67019
5.56138
5.50971
5.59844
5.77181
5.96439
6.09045
6.15766
1096.5
1025.92
5.67885
5.99574
6.19893
6.33546
6.43068
6.48711
6.51073
6.5086
6.48816
6.45773
6.41792
6.37621
6.33481
6.29333
6.25166
6.20944
6.16672
6.12381
6.08045
6.0386
5.99783
5.9552
5.91019
5.85994
5.79704
5.7089
5.60177
5.52589
5.58287
5.74085
5.93313
6.06633
6.13568
1096.49
1025.93
5.67684
5.98829
6.1844
6.31861
6.41544
6.4749
6.498
6.49213
6.46603
6.42969
6.39049
6.35143
6.31297
6.2743
6.23504
6.19504
6.15467
6.11434
6.07446
6.03468
5.99465
5.95452
5.91406
5.86783
5.81318
5.75045
5.65661
5.55678
5.57852
5.70567
5.89298
6.03649
6.13105
1096.51
1025.94
5.68084
5.98519
6.17473
6.30129
6.39117
6.4461
6.46868
6.46533
6.44308
6.4098
6.37162
6.33224
6.2929
6.25373
6.21431
6.17451
6.13471
6.09509
6.05596
6.01728
5.97875
5.94012
5.90075
5.85931
5.81654
5.77689
5.74152
5.69895
5.63963
5.68143
5.8542
6.02594
6.13512
1096.82
1025.99
5.70205
5.98546
6.16153
6.28007
6.36439
6.41519
6.43517
6.43094
6.40951
6.37823
6.34239
6.30492
6.26721
6.22937
6.19093
6.15194
6.11282
6.07367
6.03421
5.99397
5.95291
5.91144
5.86935
5.82398
5.7807
5.75697
5.76854
5.83072
5.8229
5.78472
5.89081
6.03384
6.21705
1097.08
1026.06
5.7172
5.98468
6.14802
6.25688
6.33216
6.37478
6.39017
6.38609
6.36778
6.3405
6.30915
6.27597
6.24071
6.20375
6.16534
6.12575
6.08503
6.04284
5.99873
5.95208
5.90335
5.8541
5.80141
5.74319
5.70503
5.73032
5.80153
5.92946
5.9758
5.94754
5.96996
6.0953
6.2645
1096.96
1026.07
5.7034
5.97079
6.13595
6.24562
6.32008
6.36102
6.36945
6.35781
6.33831
6.31538
6.28949
6.26036
6.22769
6.19116
6.15263
6.1124
6.07009
6.0258
5.97903
5.92942
5.87694
5.82162
5.75792
5.68935
5.67553
5.74693
5.87728
6.02517
6.10195
6.109
6.11324
6.15324
6.19404
1096.34
1026.01
5.66999
5.95431
6.12757
6.24
6.31564
6.35938
6.36752
6.351
6.32449
6.29443
6.26424
6.23383
6.20189
6.16954
6.13373
6.09492
6.0556
6.01489
5.97098
5.92295
5.87114
5.81459
5.74893
5.67461
5.63612
5.68108
5.83591
6.01449
6.14817
6.19069
6.18068
6.13617
6.07092
1096.09
1025.98
5.66369
5.94841
6.1216
6.2359
6.31446
6.35946
6.36578
6.35196
6.32477
6.29408
6.26357
6.2329
6.20063
6.16604
6.1301
6.09332
6.0546
6.01364
5.97125
5.92678
5.8791
5.82673
5.76586
5.6905
5.61193
5.59469
5.69293
5.89407
6.07216
6.16251
6.17065
6.12235
6.0436
1096.1
1025.96
5.65253
5.93977
6.1144
6.22967
6.30945
6.35531
6.36872
6.3557
6.32797
6.29645
6.26477
6.23283
6.20047
6.16678
6.13069
6.09277
6.054
6.01427
5.97253
5.92915
5.88264
5.83157
5.7751
5.70724
5.62534
5.56789
5.58816
5.74542
5.93153
6.06363
6.11634
6.10224
6.04539
1096.26
1025.93
5.63835
5.92977
6.10315
6.21628
6.29396
6.33855
6.35474
6.34964
6.33125
6.30233
6.27032
6.23707
6.20375
6.1691
6.13261
6.09484
6.05608
6.01628
5.97543
5.9332
5.8885
5.84095
5.78843
5.7248
5.64404
5.55518
5.52519
5.6181
5.79834
5.9615
6.05753
6.07676
6.06248
1096.41
1025.9
5.63115
5.92617
6.10011
6.21262
6.28953
6.33344
6.34859
6.34224
6.32201
6.29559
6.26679
6.23564
6.20221
6.16673
6.12975
6.09129
6.05202
6.01231
5.97221
5.93114
5.88909
5.8432
5.79338
5.73447
5.65961
5.56855
5.50145
5.53132
5.68903
5.86752
6.00254
6.06223
6.09274
1096.54
1025.89
5.62219
5.91627
6.09182
6.20584
6.28299
6.32628
6.34068
6.33443
6.31502
6.28887
6.26086
6.23132
6.19978
6.16602
6.12967
6.09115
6.0517
6.0119
5.97168
5.93104
5.88993
5.84593
5.79793
5.74281
5.67373
5.58386
5.49396
5.4734
5.59684
5.78374
5.95165
6.0496
6.11489
1096.61
1025.9
5.61669
5.90984
6.08625
6.1999
6.27634
6.31898
6.33239
6.32464
6.30429
6.27818
6.25015
6.2207
6.18946
6.1559
6.12012
6.08243
6.04358
6.00424
5.96443
5.92402
5.88264
5.84003
5.79515
5.74513
5.6811
5.59954
5.50541
5.44753
5.51812
5.69608
5.89241
6.02802
6.12775
1096.67
1025.9
5.61114
5.90264
6.08018
6.1956
6.27408
6.31801
6.33169
6.32305
6.30048
6.27191
6.24221
6.21191
6.18061
6.14778
6.11297
6.07627
6.03826
5.99916
5.95929
5.91882
5.87758
5.83522
5.79092
5.74154
5.68138
5.60763
5.52494
5.45176
5.48514
5.64376
5.85508
6.02039
6.12757
1096.73
1025.9
5.60476
5.89266
6.06931
6.18473
6.26296
6.30644
6.31948
6.31053
6.28821
6.26031
6.2314
6.20179
6.17067
6.13741
6.10189
6.06486
6.0269
5.98814
5.94859
5.90813
5.86646
5.82331
5.77775
5.72609
5.6624
5.59147
5.53542
5.50069
5.52922
5.64167
5.84226
6.01436
6.16843
1096.77
1025.91
5.5995
5.88259
6.05902
6.17603
6.25604
6.30034
6.31281
6.30111
6.27552
6.24474
6.21235
6.18058
6.14894
6.11525
6.07916
6.04159
6.00292
5.96314
5.92218
5.87961
5.83517
5.78943
5.74097
5.68356
5.61025
5.5323
5.49579
5.52638
5.61636
5.70832
5.86952
6.04621
6.1711
1096.69
1025.92
5.59368
5.87247
6.04793
6.16524
6.2454
6.28971
6.30314
6.29436
6.26962
6.23717
6.20532
6.17183
6.13619
6.0997
6.06172
6.02278
5.98325
5.94308
5.90213
5.86014
5.81674
5.77088
5.72137
5.66194
5.58399
5.5011
5.47824
5.55198
5.70312
5.83556
5.96059
6.04338
6.11251
1096.41
1025.92
5.58016
5.85759
6.03425
6.15275
6.23507
6.28216
6.29765
6.28921
6.26605
6.23621
6.20435
6.16987
6.13447
6.09778
6.05956
6.02038
5.98079
5.94074
5.90003
5.85813
5.81452
5.76858
5.71874
5.65979
5.5818
5.4954
5.45744
5.52214
5.6839
5.84069
5.96385
6.02936
6.05913
1096.35
1025.91
5.57003
5.84442
6.01747
6.13368
6.21505
6.26281
6.28061
6.27671
6.25816
6.23147
6.20105
6.16776
6.13247
6.09547
6.05658
6.01632
5.97586
5.93542
5.89471
5.8533
5.81053
5.76568
5.71727
5.66109
5.58921
5.50071
5.43661
5.46332
5.61247
5.7895
5.93599
6.01051
6.05457
1096.37
1025.89
5.56196
5.83383
6.0027
6.11601
6.19535
6.2421
6.26001
6.25639
6.23843
6.21283
6.18402
6.15309
6.12034
6.08564
6.04856
6.00959
5.96988
5.93001
5.88976
5.84878
5.80646
5.7621
5.7145
5.65974
5.59042
5.50388
5.42522
5.42384
5.55523
5.73608
5.90011
6.00566
6.05642
1096.51
1025.88
5.55424
5.8235
5.99038
6.10168
6.17898
6.22426
6.24275
6.24076
6.22502
6.20166
6.17469
6.14511
6.11322
6.07904
6.04227
6.00343
5.96349
5.92331
5.88282
5.84165
5.79921
5.7549
5.70768
5.65461
5.58861
5.50402
5.41761
5.38526
5.48313
5.66632
5.87096
6.00008
6.07298
1096.62
1025.88
5.54372
5.81075
5.97728
6.08818
6.16423
6.2076
6.22368
6.21955
6.20291
6.17971
6.15375
6.12568
6.0953
6.06249
6.02704
5.98932
5.95022
5.91046
5.8701
5.82874
5.78577
5.74078
5.69291
5.63886
5.57069
5.48452
5.39997
5.36428
5.45398
5.64469
5.8592
6.00221
6.10303
1096.68
1025.87
5.52838
5.79804
5.96754
6.07992
6.15694
6.20061
6.21574
6.21083
6.19297
6.16861
6.1423
6.11417
6.08374
6.05077
6.01525
5.97741
5.93793
5.89745
5.85616
5.81358
5.76938
5.7234
5.67464
5.61929
5.54858
5.46263
5.38453
5.36001
5.45845
5.64794
5.871
6.01883
6.12852
1096.64
1025.85
5.51454
5.78471
5.95666
6.0711
6.14905
6.1929
6.20786
6.20089
6.18154
6.15687
6.12951
6.09994
6.06867
6.03523
5.99932
5.96111
5.92128
5.8804
5.83852
5.79554
5.75135
5.70572
5.65767
5.6036
5.53732
5.45402
5.38208
5.38034
5.49913
5.68062
5.87516
6.01209
6.10402
1096.48
1025.84
5.5044
5.77482
5.94841
6.06507
6.14562
6.19123
6.20644
6.19955
6.17895
6.15206
6.12323
6.0929
6.06025
6.02518
5.98829
5.94978
5.90981
5.86883
5.82745
5.78558
5.74291
5.69891
5.65252
5.60025
5.53473
5.45441
5.38267
5.37316
5.48151
5.65648
5.84776
5.98321
6.05999
1096.41
1025.83
5.49407
5.76109
5.93329
6.0501
6.13185
6.17942
6.19626
6.19045
6.16997
6.14247
6.11247
6.08078
6.04734
6.01213
5.97523
5.93668
5.89669
5.85557
5.81374
5.77165
5.72932
5.6863
5.64156
5.59217
5.53254
5.45879
5.38403
5.36191
5.46439
5.64096
5.8288
5.96009
6.04311
1096.42
1025.83
5.49066
5.75193
5.92135
6.03752
6.11983
6.16826
6.18559
6.17933
6.15715
6.12744
6.09525
6.06182
6.02703
5.99095
5.95353
5.91478
5.87502
5.83458
5.7938
5.75286
5.71207
5.67105
5.62897
5.58317
5.5285
5.46123
5.3876
5.33823
5.3976
5.56197
5.76621
5.92747
6.03871
1096.56
1025.85
5.4887
5.74182
5.90767
6.02209
6.10354
6.1518
6.16907
6.16283
6.13998
6.10918
6.07566
6.04069
6.0049
5.96836
5.93053
5.89144
5.85179
5.81192
5.77191
5.73168
5.69114
5.65024
5.60847
5.56335
5.51008
5.45016
5.39893
5.36752
5.39511
5.53736
5.74964
5.93104
6.06928
1096.81
1025.86
5.48035
5.72998
5.89486
6.00863
6.0895
6.13725
6.15351
6.14468
6.11899
6.08581
6.05026
6.0139
5.97791
5.94159
5.90401
5.8655
5.82646
5.78697
5.74701
5.70652
5.66543
5.62359
5.58023
5.53149
5.47132
5.40787
5.37558
5.40277
5.45276
5.55162
5.75198
5.94225
6.12246
1096.79
1025.86
5.47125
5.71436
5.87439
5.98424
6.06167
6.10692
6.12246
6.11502
6.09063
6.05691
6.02025
5.98377
5.94756
5.91104
5.87335
5.83439
5.79472
5.75458
5.71417
5.67351
5.63251
5.5908
5.5471
5.49726
5.43608
5.36929
5.34641
5.41526
5.54715
5.6792
5.82187
5.97812
6.09356
1096.5
1025.86
5.45904
5.6988
5.85611
5.963
6.03765
6.08048
6.09349
6.08287
6.05825
6.02804
5.99533
5.96095
5.92546
5.88927
5.85235
5.81458
5.77618
5.73761
5.69924
5.6612
5.62292
5.58354
5.54177
5.49338
5.43172
5.36377
5.32698
5.37311
5.52129
5.68889
5.85507
5.95783
6.02622
1096.36
1025.87
5.45383
5.68285
5.83202
5.93257
6.00261
6.04285
6.05675
6.05062
6.03029
6.0024
5.97063
5.93693
5.90223
5.86689
5.83083
5.79401
5.75664
5.71913
5.68217
5.64521
5.60772
5.56924
5.52879
5.4832
5.42737
5.36031
5.31561
5.3427
5.48107
5.65743
5.82997
5.94451
6.01616
1096.39
1025.87
5.43848
5.66616
5.81148
5.90707
5.97192
6.00768
6.01845
6.01102
5.99256
5.96879
5.94105
5.91052
5.87849
5.8455
5.81156
5.77669
5.74105
5.70488
5.66876