/*--------------------------------*- C++ -*----------------------------------*\
| =========                 |                                                 |
| \\      /  F ield         | OpenFOAM: The Open Source CFD Toolbox           |
|  \\    /   O peration     | Version:  2.0.x                                 |
|   \\  /    A nd           | Web:      www.OpenFOAM.org                      |
|    \\/     M anipulation  |                                                 |
\*---------------------------------------------------------------------------*/
FoamFile
{
    version     2.0;
    format      ascii;
    class       surfaceScalarField;
    location    "100";
    object      phi;
}
// * * * * * * * * * * * * * * * * * * * * * * * * * * * * * * * * * * * * * //

dimensions      [1 0 -1 0 0 0 0];

internalField   nonuniform List<scalar> 
228225
(
6.13157e-07
-5.30655e-07
-1.57553e-07
2.69391e-06
-1.80724e-06
-2.73735e-07
5.81205e-06
-2.83363e-06
-2.84818e-07
9.6102e-06
-3.53444e-06
-2.64022e-07
1.36466e-05
-3.80542e-06
-2.31278e-07
1.76817e-05
-3.87199e-06
-1.63291e-07
2.14292e-05
-3.61705e-06
-1.30695e-07
2.47983e-05
-3.2445e-06
-1.24915e-07
2.77596e-05
-2.83815e-06
-1.23332e-07
3.0328e-05
-2.42596e-06
-1.42693e-07
3.25077e-05
-2.02055e-06
-1.59486e-07
3.4288e-05
-1.60832e-06
-1.72205e-07
3.567e-05
-1.19805e-06
-1.84156e-07
3.66284e-05
-7.60181e-07
-1.98537e-07
3.70943e-05
-2.48023e-07
-2.18164e-07
3.703e-05
3.08315e-07
-2.4428e-07
3.67368e-05
5.68959e-07
-2.75927e-07
3.61121e-05
9.36904e-07
-3.12473e-07
3.52349e-05
1.22914e-06
-3.52214e-07
3.41664e-05
1.46382e-06
-3.95636e-07
3.29612e-05
1.64695e-06
-4.42019e-07
3.1666e-05
1.78441e-06
-4.8951e-07
3.03094e-05
1.89223e-06
-5.3593e-07
2.88924e-05
1.99549e-06
-5.7872e-07
2.7402e-05
2.10496e-06
-6.14838e-07
2.58141e-05
2.23028e-06
-6.42692e-07
2.4039e-05
2.43504e-06
-6.60301e-07
2.20297e-05
2.67628e-06
-6.67321e-07
1.98085e-05
2.88684e-06
-6.66043e-07
1.73708e-05
3.09956e-06
-6.62254e-07
1.47061e-05
3.31527e-06
-6.51047e-07
1.1771e-05
3.57229e-06
-6.37752e-07
8.34e-06
4.04943e-06
-6.19223e-07
4.06427e-06
4.79359e-06
-5.18637e-07
4.31127e-06
-2.47015e-07
1.68447e-06
-2.18024e-06
-3.46122e-08
5.1936e-06
-5.32913e-06
1.30983e-08
9.11924e-06
-6.86034e-06
1.01363e-07
1.27119e-05
-7.30239e-06
1.75472e-07
1.57214e-05
-7.0571e-06
2.42274e-07
1.8029e-05
-6.41221e-06
2.32676e-07
1.97156e-05
-5.51238e-06
2.08769e-07
2.0862e-05
-4.57647e-06
1.85552e-07
2.15855e-05
-3.71937e-06
1.57651e-07
2.20252e-05
-3.01997e-06
1.54186e-07
2.22562e-05
-2.40847e-06
1.567e-07
2.23418e-05
-1.86013e-06
1.66022e-07
2.22977e-05
-1.33399e-06
1.79864e-07
2.21296e-05
-7.89723e-07
1.9729e-07
2.1795e-05
-1.17316e-07
2.03536e-07
2.13972e-05
5.12967e-07
1.9292e-07
2.07767e-05
9.87254e-07
2.01916e-07
2.00424e-05
1.48465e-06
1.86157e-07
1.9186e-05
1.92936e-06
1.55822e-07
1.82415e-05
2.29792e-06
1.10002e-07
1.72459e-05
2.59252e-06
4.96483e-08
1.62282e-05
2.82081e-06
-1.91635e-08
1.52356e-05
3.00484e-06
-1.20512e-07
1.4255e-05
3.17914e-06
-2.03444e-07
1.33051e-05
3.33678e-06
-2.82243e-07
1.23972e-05
3.48405e-06
-3.46267e-07
1.15588e-05
3.66917e-06
-3.96325e-07
1.07738e-05
3.9056e-06
-4.4487e-07
9.87262e-06
4.27057e-06
-4.83191e-07
8.83171e-06
4.6496e-06
-5.09761e-07
7.61396e-06
5.05565e-06
-5.23308e-07
6.06945e-06
5.638e-06
-5.21846e-07
3.99804e-06
6.61079e-06
-4.90691e-07
1.6114e-06
7.54939e-06
-3.69966e-07
6.08019e-06
-1.57548e-07
1.36084e-06
-3.57173e-06
3.02903e-08
3.33107e-06
-7.45994e-06
1.60295e-07
4.86086e-06
-8.64804e-06
2.5768e-07
5.75554e-06
-8.50022e-06
3.02906e-07
6.10171e-06
-7.7212e-06
3.17629e-07
5.95478e-06
-6.59446e-06
3.28865e-07
5.535e-06
-5.40073e-06
3.07788e-07
4.99379e-06
-4.30179e-06
2.66146e-07
4.43112e-06
-3.38525e-06
2.28107e-07
3.86176e-06
-2.65251e-06
2.01435e-07
3.33534e-06
-2.07101e-06
1.88446e-07
2.8508e-06
-1.56444e-06
1.88316e-07
2.40366e-06
-1.08324e-06
1.95814e-07
2.00305e-06
-5.94086e-07
2.04397e-07
1.81377e-06
-1.37916e-07
2.09336e-07
1.78731e-06
3.31138e-07
2.07734e-07
1.78162e-06
8.00544e-07
1.91842e-07
1.85056e-06
1.24953e-06
1.65629e-07
1.9942e-06
1.65257e-06
1.32613e-07
2.19109e-06
2.00683e-06
9.36731e-08
2.41272e-06
2.32021e-06
5.01536e-08
2.62547e-06
2.60451e-06
3.04387e-09
2.80663e-06
2.87147e-06
-4.82824e-08
2.95574e-06
3.13035e-06
-1.00816e-07
3.06242e-06
3.38199e-06
-1.52423e-07
3.12734e-06
3.62045e-06
-2.01856e-07
3.2088e-06
3.83528e-06
-2.48107e-07
3.27215e-06
4.11321e-06
-2.71572e-07
3.31365e-06
4.50723e-06
-2.78848e-07
3.27096e-06
4.97186e-06
-2.80242e-07
3.02184e-06
5.59972e-06
-2.95595e-07
2.38093e-06
6.57639e-06
-2.9809e-07
1.32418e-06
7.94164e-06
-2.74762e-07
3.20406e-07
8.75231e-06
-1.99893e-07
6.47515e-06
-7.45617e-08
4.11183e-07
-4.08081e-06
9.78247e-08
6.30333e-07
-7.95409e-06
2.74893e-07
5.16114e-07
-8.92209e-06
3.8814e-07
2.9507e-07
-8.72185e-06
4.42499e-07
-5.10323e-09
-7.86351e-06
4.42235e-07
-4.0012e-07
-6.62144e-06
4.21669e-07
-9.04497e-07
-5.28998e-06
3.93237e-07
-1.4504e-06
-4.11216e-06
3.55831e-07
-1.98501e-06
-3.16845e-06
3.17337e-07
-2.47783e-06
-2.44469e-06
2.84492e-07
-2.92997e-06
-1.87299e-06
2.53575e-07
-3.33705e-06
-1.38925e-06
2.31295e-07
-3.68763e-06
-9.49524e-07
2.163e-07
-3.95471e-06
-5.3391e-07
2.06378e-07
-4.11598e-06
-1.77452e-07
2.00242e-07
-4.16981e-06
1.91243e-07
1.93146e-07
-4.13513e-06
5.79858e-07
1.85464e-07
-3.9868e-06
9.26747e-07
1.73938e-07
-3.73666e-06
1.24322e-06
1.58724e-07
-3.40288e-06
1.53301e-06
1.39577e-07
-3.00048e-06
1.80143e-06
1.15942e-07
-2.53899e-06
2.05585e-06
8.67612e-08
-2.02184e-06
2.3039e-06
5.00138e-08
-1.45663e-06
2.55225e-06
1.24923e-08
-8.55057e-07
2.80625e-06
-2.62142e-08
-2.39769e-07
3.07205e-06
-6.72417e-08
3.40779e-07
3.36732e-06
-1.12916e-07
8.847e-07
3.71298e-06
-1.4401e-07
1.39468e-06
4.15807e-06
-1.61126e-07
1.76644e-06
4.7637e-06
-1.63909e-07
1.82863e-06
5.68e-06
-1.42788e-07
1.47093e-06
7.05889e-06
-1.25077e-07
7.89958e-07
8.7246e-06
-1.02258e-07
1.62228e-07
9.441e-06
-6.12953e-08
6.64645e-06
-9.09262e-09
-5.594e-08
-4.14139e-06
1.16086e-07
-2.36005e-07
-8.05047e-06
2.76041e-07
-4.93424e-07
-9.04318e-06
3.78119e-07
-8.02533e-07
-8.85698e-06
4.43829e-07
-1.11274e-06
-8.04116e-06
4.87411e-07
-1.41313e-06
-6.83161e-06
5.10058e-07
-1.69589e-06
-5.51887e-06
5.11117e-07
-1.997e-06
-4.30459e-06
4.92966e-07
-2.33794e-06
-3.28814e-06
4.60017e-07
-2.71061e-06
-2.49055e-06
4.1785e-07
-3.10403e-06
-1.86633e-06
3.86089e-07
-3.47883e-06
-1.37695e-06
3.61802e-07
-3.79838e-06
-9.75828e-07
3.45138e-07
-4.02917e-06
-6.36531e-07
3.32735e-07
-4.19289e-06
-3.36985e-07
3.22651e-07
-4.23048e-06
-8.52959e-08
3.13513e-07
-4.14262e-06
1.88608e-07
3.02759e-07
-3.95473e-06
4.45723e-07
2.92519e-07
-3.6804e-06
6.88111e-07
2.80208e-07
-3.33083e-06
9.16626e-07
2.66275e-07
-2.9147e-06
1.13389e-06
2.50898e-07
-2.43811e-06
1.34429e-06
2.34486e-07
-1.90747e-06
1.55416e-06
2.18633e-07
-1.32526e-06
1.77141e-06
1.98195e-07
-7.0046e-07
2.00648e-06
1.74543e-07
-5.16361e-08
2.27408e-06
1.48743e-07
5.95803e-07
2.59752e-06
1.21965e-07
1.19845e-06
3.01305e-06
9.68942e-08
1.69672e-06
3.58247e-06
7.6938e-08
1.97653e-06
4.41185e-06
7.16504e-08
1.94037e-06
5.66446e-06
5.13416e-08
1.50901e-06
7.45207e-06
3.78903e-08
8.29316e-07
9.37392e-06
3.00863e-08
2.11513e-07
1.00253e-05
3.31918e-08
6.82604e-06
3.1923e-08
-1.59415e-07
-4.10245e-06
1.19652e-07
-4.41391e-07
-8.0413e-06
2.71995e-07
-7.35566e-07
-9.11917e-06
3.69495e-07
-9.82789e-07
-9.04335e-06
4.32992e-07
-1.09802e-06
-8.40431e-06
4.77728e-07
-1.07631e-06
-7.36309e-06
5.09086e-07
-9.93157e-07
-6.12936e-06
5.26585e-07
-9.34403e-07
-4.89452e-06
5.30396e-07
-9.5869e-07
-3.7861e-06
5.21437e-07
-1.09e-06
-2.86607e-06
5.06026e-07
-1.29666e-06
-2.14328e-06
4.82779e-07
-1.54171e-06
-1.59058e-06
4.57854e-07
-1.77884e-06
-1.17489e-06
4.35396e-07
-1.97011e-06
-8.63687e-07
4.17646e-07
-2.08586e-06
-6.27266e-07
4.05304e-07
-2.14226e-06
-4.26567e-07
3.9701e-07
-2.0953e-06
-2.5128e-07
3.92267e-07
-1.96895e-06
-7.07428e-08
3.89467e-07
-1.76686e-06
9.93872e-08
3.86025e-07
-1.49584e-06
2.63514e-07
3.81531e-07
-1.16319e-06
4.24051e-07
3.76685e-07
-7.77989e-07
5.86224e-07
3.72414e-07
-3.5394e-07
7.60033e-07
3.69678e-07
1.02441e-07
9.52374e-07
3.62303e-07
5.82189e-07
1.17612e-06
3.50299e-07
1.07418e-06
1.45085e-06
3.30968e-07
1.55619e-06
1.80868e-06
3.06602e-07
1.98815e-06
2.30011e-06
2.80786e-07
2.30657e-06
3.00898e-06
2.54909e-07
2.43156e-06
4.06931e-06
2.17436e-07
2.23259e-06
5.67066e-06
1.92682e-07
1.72294e-06
7.79355e-06
1.68112e-07
9.9693e-07
9.95843e-06
1.41452e-07
3.2033e-07
1.05892e-05
1.12589e-07
7.08096e-06
6.54045e-08
-1.08052e-07
-4.10085e-06
1.05373e-07
-2.77326e-07
-8.10763e-06
2.34703e-07
-3.75621e-07
-9.33089e-06
3.09253e-07
-4.16965e-07
-9.37121e-06
3.68473e-07
-3.8944e-07
-8.85093e-06
4.18338e-07
-3.00761e-07
-7.9132e-06
4.60613e-07
-1.83601e-07
-6.7441e-06
4.96723e-07
-7.24763e-08
-5.52898e-06
5.22429e-07
3.93647e-09
-4.39912e-06
5.35679e-07
2.88001e-08
-3.4288e-06
5.36924e-07
2.11262e-09
-2.6466e-06
5.29072e-07
-5.91082e-08
-2.04652e-06
5.1627e-07
-1.30262e-07
-1.60592e-06
5.01344e-07
-1.90158e-07
-1.29143e-06
4.86869e-07
-2.27666e-07
-1.06556e-06
4.7507e-07
-2.32615e-07
-8.8993e-07
4.67591e-07
-1.94735e-07
-7.53312e-07
4.63449e-07
-9.55e-08
-6.32351e-07
4.61691e-07
6.31641e-08
-5.21351e-07
4.61427e-07
2.79272e-07
-4.14893e-07
4.617e-07
5.49013e-07
-3.07777e-07
4.61533e-07
8.67821e-07
-1.92361e-07
4.59261e-07
1.23048e-06
-5.67767e-08
4.53678e-07
1.62554e-06
1.07823e-07
4.49056e-07
2.03933e-06
3.17463e-07
4.44488e-07
2.46555e-06
5.80921e-07
4.43373e-07
2.85179e-06
9.87705e-07
4.34439e-07
3.1493e-06
1.59058e-06
4.11781e-07
3.28852e-06
2.49944e-06
3.70129e-07
3.18424e-06
3.86398e-06
3.09454e-07
2.7422e-06
5.85373e-06
2.58872e-07
1.95151e-06
8.38227e-06
2.01911e-07
1.0711e-06
1.06771e-05
1.61693e-07
3.23733e-07
1.12118e-05
1.24821e-07
7.3359e-06
6.879e-08
-5.55478e-08
-4.13679e-06
9.0169e-08
-1.34618e-07
-8.23646e-06
2.06878e-07
-1.74822e-07
-9.56794e-06
2.76395e-07
-2.1152e-07
-9.65698e-06
3.21659e-07
-2.31938e-07
-9.18844e-06
3.57084e-07
-2.2209e-07
-8.31295e-06
3.89005e-07
-1.87117e-07
-7.19939e-06
4.19357e-07
-1.36871e-07
-6.02692e-06
4.4669e-07
-8.02101e-08
-4.92559e-06
4.68768e-07
-2.30425e-08
-3.97105e-06
4.84034e-07
3.38696e-08
-3.19656e-06
4.92044e-07
9.54643e-08
-2.60278e-06
4.93715e-07
1.64351e-07
-2.16683e-06
4.91163e-07
2.39579e-07
-1.85413e-06
4.86684e-07
3.16607e-07
-1.62537e-06
4.82034e-07
3.99328e-07
-1.45152e-06
4.78154e-07
4.9129e-07
-1.32115e-06
4.75188e-07
5.96408e-07
-1.21243e-06
4.74294e-07
7.21017e-07
-1.1217e-06
4.75106e-07
8.77219e-07
-1.04909e-06
4.77393e-07
1.05731e-06
-9.69597e-07
4.8116e-07
1.25571e-06
-8.77013e-07
4.85719e-07
1.47112e-06
-7.62964e-07
4.90282e-07
1.70165e-06
-6.17106e-07
4.93952e-07
1.94204e-06
-4.18586e-07
4.95258e-07
2.17856e-06
-1.47306e-07
4.91296e-07
2.3811e-06
2.99046e-07
4.85707e-07
2.56054e-06
9.39033e-07
4.71724e-07
2.59679e-06
2.01839e-06
4.44464e-07
2.4038e-06
3.65562e-06
4.0108e-07
1.9753e-06
5.94435e-06
3.37633e-07
1.30519e-06
8.79237e-06
2.59834e-07
6.31159e-07
1.11751e-05
1.75886e-07
1.46112e-07
1.15815e-05
1.15103e-07
7.42807e-06
5.39368e-08
-8.65744e-08
-4.142e-06
9.03202e-08
-1.70762e-07
-8.35998e-06
2.06586e-07
-2.06665e-07
-9.8083e-06
2.75321e-07
-2.19808e-07
-9.96659e-06
3.21878e-07
-2.02261e-07
-9.56304e-06
3.5615e-07
-1.47012e-07
-8.75298e-06
3.83817e-07
-6.85603e-08
-7.68653e-06
4.07663e-07
1.82783e-08
-6.54264e-06
4.27811e-07
1.04736e-07
-5.45721e-06
4.44061e-07
1.89047e-07
-4.51271e-06
4.56239e-07
2.74821e-07
-3.74772e-06
4.64314e-07
3.68655e-07
-3.16621e-06
4.68603e-07
4.76034e-07
-2.7451e-06
4.70001e-07
5.97751e-07
-2.44635e-06
4.6969e-07
7.29719e-07
-2.22673e-06
4.68643e-07
8.6535e-07
-2.05541e-06
4.67538e-07
9.93903e-07
-1.91747e-06
4.67068e-07
1.11789e-06
-1.80431e-06
4.6724e-07
1.23682e-06
-1.70945e-06
4.68198e-07
1.34704e-06
-1.63059e-06
4.70685e-07
1.44471e-06
-1.54203e-06
4.74226e-07
1.52589e-06
-1.43772e-06
4.7904e-07
1.58936e-06
-1.31223e-06
4.85355e-07
1.64357e-06
-1.16566e-06
4.9395e-07
1.67769e-06
-9.58425e-07
5.05332e-07
1.65313e-06
-6.42361e-07
5.19263e-07
1.55096e-06
-1.32747e-07
5.33647e-07
1.45911e-06
4.87123e-07
5.43474e-07
1.45292e-06
1.47888e-06
5.45453e-07
1.45345e-06
3.1298e-06
5.25135e-07
1.3682e-06
5.56248e-06
4.67044e-07
1.11517e-06
8.66577e-06
3.79586e-07
7.15584e-07
1.12921e-05
2.82609e-07
2.8079e-07
1.18266e-05
1.89654e-07
7.62328e-06
8.55558e-08
-5.15108e-08
-4.17472e-06
8.24666e-08
-6.87008e-08
-8.52831e-06
1.84163e-07
-2.30077e-08
-1.01027e-05
2.47596e-07
4.73666e-08
-1.03267e-05
2.88746e-07
1.35486e-07
-9.97188e-06
3.19663e-07
2.40206e-07
-9.20481e-06
3.45977e-07
3.54713e-07
-8.17199e-06
3.69756e-07
4.7174e-07
-7.05139e-06
3.90457e-07
5.87443e-07
-5.98162e-06
4.07402e-07
7.01717e-07
-5.0486e-06
4.20321e-07
8.17996e-07
-4.29453e-06
4.29278e-07
9.42391e-07
-3.72649e-06
4.34732e-07
1.08044e-06
-3.32175e-06
4.3757e-07
1.23412e-06
-3.03979e-06
4.38808e-07
1.40179e-06
-2.83449e-06
4.39206e-07
1.58278e-06
-2.6764e-06
4.39117e-07
1.77745e-06
-2.55173e-06
4.38741e-07
1.98319e-06
-2.44985e-06
4.38965e-07
2.19314e-06
-2.36025e-06
4.40028e-07
2.39243e-06
-2.27248e-06
4.41806e-07
2.58147e-06
-2.17631e-06
4.44463e-07
2.75662e-06
-2.0618e-06
4.48187e-07
2.91147e-06
-1.92113e-06
4.53333e-07
3.03658e-06
-1.75212e-06
4.60599e-07
3.12282e-06
-1.51586e-06
4.70343e-07
3.17308e-06
-1.1766e-06
4.83056e-07
3.16199e-06
-6.20499e-07
4.97905e-07
2.96698e-06
1.67465e-07
5.13639e-07
2.9078e-06
1.00734e-06
5.29562e-07
2.88194e-06
2.61632e-06
5.38211e-07
2.77498e-06
5.147e-06
5.21341e-07
2.39197e-06
8.57955e-06
4.68384e-07
1.58893e-06
1.17066e-05
3.87666e-07
6.25783e-07
1.25086e-05
2.80115e-07
8.11471e-06
1.34324e-07
-3.03011e-08
-4.22314e-06
7.6652e-08
-1.26873e-08
-8.72406e-06
1.76542e-07
5.93782e-08
-1.04144e-05
2.38277e-07
1.49712e-07
-1.06957e-05
2.77379e-07
2.5057e-07
-1.03796e-05
3.0561e-07
3.62582e-07
-9.64729e-06
3.29168e-07
4.85885e-07
-8.64648e-06
3.498e-07
6.1901e-07
-7.55346e-06
3.67482e-07
7.6168e-07
-6.50758e-06
3.81786e-07
9.14538e-07
-5.59549e-06
3.92524e-07
1.0793e-06
-4.86059e-06
3.99858e-07
1.25857e-06
-4.31137e-06
4.04287e-07
1.45478e-06
-3.92575e-06
4.06618e-07
1.66828e-06
-3.6621e-06
4.07731e-07
1.89802e-06
-3.47353e-06
4.08268e-07
2.14446e-06
-3.33229e-06
4.08446e-07
2.40872e-06
-3.22541e-06
4.08446e-07
2.69105e-06
-3.14146e-06
4.08306e-07
2.99069e-06
-3.0694e-06
4.08574e-07
3.30608e-06
-2.99837e-06
4.09603e-07
3.63521e-06
-2.91728e-06
4.10987e-07
3.9742e-06
-2.81444e-06
4.12831e-07
4.31455e-06
-2.67757e-06
4.15311e-07
4.63611e-06
-2.49327e-06
4.18843e-07
4.93498e-06
-2.23946e-06
4.23914e-07
5.20174e-06
-1.87511e-06
4.30806e-07
5.42151e-06
-1.28067e-06
4.39457e-07
5.37225e-06
-2.32755e-07
4.48612e-07
5.15685e-06
7.64194e-07
4.57593e-07
4.85655e-06
2.44916e-06
4.66369e-07
4.19724e-06
5.34004e-06
4.65448e-07
3.16707e-06
9.17084e-06
4.3837e-07
1.80644e-06
1.2697e-05
3.69666e-07
5.80876e-07
1.34639e-05
2.6938e-07
8.56412e-06
1.31395e-07
-4.36091e-09
-4.29141e-06
7.0113e-08
4.66312e-08
-8.93923e-06
1.62252e-07
1.57445e-07
-1.0744e-05
2.17175e-07
2.87873e-07
-1.10787e-05
2.51158e-07
4.23235e-07
-1.07929e-05
2.76511e-07
5.59743e-07
-1.00854e-05
3.00042e-07
6.96966e-07
-9.10735e-06
3.2198e-07
8.37305e-07
-8.0372e-06
3.41648e-07
9.84891e-07
-7.01491e-06
3.57936e-07
1.14328e-06
-6.12604e-06
3.70348e-07
1.31431e-06
-5.41223e-06
3.7887e-07
1.49765e-06
-4.88032e-06
3.84029e-07
1.69293e-06
-4.50917e-06
3.86701e-07
1.90104e-06
-4.2594e-06
3.87852e-07
2.12345e-06
-4.08551e-06
3.88254e-07
2.36131e-06
-3.95974e-06
3.88271e-07
2.61494e-06
-3.86845e-06
3.8809e-07
2.88361e-06
-3.79941e-06
3.87959e-07
3.16613e-06
-3.74112e-06
3.87872e-07
3.46096e-06
-3.68243e-06
3.87889e-07
3.76603e-06
-3.61201e-06
3.88303e-07
4.07887e-06
-3.51793e-06
3.89301e-07
4.39699e-06
-3.38753e-06
3.90486e-07
4.71794e-06
-3.20749e-06
3.91868e-07
5.03583e-06
-2.95258e-06
3.93597e-07
5.32217e-06
-2.55943e-06
3.95887e-07
5.55531e-06
-1.9143e-06
3.98023e-07
5.71303e-06
-7.91007e-07
3.9802e-07
5.36517e-06
7.12031e-07
3.97158e-07
4.83322e-06
2.58495e-06
3.93287e-07
3.75272e-06
6.03478e-06
3.8342e-07
2.27015e-06
1.03017e-05
3.49802e-07
9.70017e-07
1.37083e-05
2.86781e-07
1.45721e-07
1.40868e-05
1.98961e-07
8.62702e-06
8.27546e-08
-1.68248e-08
-4.34557e-06
6.80189e-08
3.30847e-08
-9.15186e-06
1.60456e-07
1.41926e-07
-1.10681e-05
2.1343e-07
2.67342e-07
-1.14489e-05
2.43126e-07
3.92324e-07
-1.1183e-05
2.63391e-07
5.12421e-07
-1.04898e-05
2.8246e-07
6.29646e-07
-9.52781e-06
3.01288e-07
7.5024e-07
-8.47915e-06
3.19319e-07
8.80517e-07
-7.48261e-06
3.3531e-07
1.02412e-06
-6.62006e-06
3.48313e-07
1.18089e-06
-5.92901e-06
3.58002e-07
1.34692e-06
-5.41274e-06
3.64537e-07
1.51699e-06
-5.04946e-06
3.6854e-07
1.6892e-06
-4.80399e-06
3.70815e-07
1.86527e-06
-4.63528e-06
3.72155e-07
2.04541e-06
-4.51456e-06
3.73127e-07
2.22796e-06
-4.42648e-06
3.73936e-07
2.41068e-06
-4.35849e-06
3.748e-07
2.59077e-06
-4.29873e-06
3.75968e-07
2.76512e-06
-4.23573e-06
3.77399e-07
2.93026e-06
-4.15791e-06
3.79217e-07
3.08274e-06
-4.05336e-06
3.81424e-07
3.21969e-06
-3.90996e-06
3.83996e-07
3.33659e-06
-3.71284e-06
3.86942e-07
3.42354e-06
-3.43147e-06
3.90264e-07
3.47122e-06
-3.00389e-06
3.94745e-07
3.48761e-06
-2.33188e-06
3.98557e-07
3.56035e-06
-1.26393e-06
3.97164e-07
3.2754e-06
6.04324e-07
3.8973e-07
2.79603e-06
2.6827e-06
3.78546e-07
2.03392e-06
6.43801e-06
3.5622e-07
1.12822e-06
1.08914e-05
3.14192e-07
4.42182e-07
1.41399e-05
2.52373e-07
5.7955e-08
1.42981e-05
1.70729e-07
8.61604e-06
6.88132e-08
-1.37346e-08
-4.40244e-06
6.71256e-08
7.36194e-08
-9.39641e-06
1.54579e-07
2.25147e-07
-1.14228e-05
2.00998e-07
3.9007e-07
-1.18415e-05
2.25762e-07
5.49273e-07
-1.15868e-05
2.42656e-07
6.95215e-07
-1.08975e-05
2.59719e-07
8.31329e-07
-9.94375e-06
2.77582e-07
9.65562e-07
-8.91134e-06
2.95582e-07
1.10673e-06
-7.93845e-06
3.12223e-07
1.26139e-06
-7.10353e-06
3.2636e-07
1.43086e-06
-6.43826e-06
3.37402e-07
1.61124e-06
-5.94072e-06
3.45378e-07
1.79588e-06
-5.58696e-06
3.50802e-07
1.97925e-06
-5.34365e-06
3.5432e-07
2.16197e-06
-5.1765e-06
3.56561e-07
2.34454e-06
-5.05737e-06
3.58266e-07
2.52486e-06
-4.96854e-06
3.59715e-07
2.70025e-06
-4.89708e-06
3.61131e-07
2.86743e-06
-4.83074e-06
3.62691e-07
3.02257e-06
-4.75762e-06
3.64554e-07
3.16143e-06
-4.66588e-06
3.66875e-07
3.27988e-06
-4.54368e-06
3.69582e-07
3.37198e-06
-4.37735e-06
3.72896e-07
3.42513e-06
-4.14611e-06
3.77487e-07
3.42231e-06
-3.81501e-06
3.83274e-07
3.35142e-06
-3.32871e-06
3.91871e-07
3.22308e-06
-2.60963e-06
4.01011e-07
3.05592e-06
-1.50794e-06
4.04907e-07
2.73925e-06
5.15184e-07
3.99485e-07
2.52849e-06
2.50158e-06
3.86403e-07
2.28567e-06
6.3179e-06
3.58224e-07
1.85527e-06
1.10035e-05
3.1448e-07
1.17334e-06
1.45683e-05
2.4934e-07
4.5348e-07
1.48461e-05
1.66992e-07
9.00117e-06
6.81929e-08
1.52529e-08
-4.49433e-06
7.27991e-08
1.56511e-07
-9.70213e-06
1.61603e-07
3.49362e-07
-1.18231e-05
2.05112e-07
5.4643e-07
-1.22668e-05
2.26117e-07
7.32846e-07
-1.20139e-05
2.38557e-07
9.03704e-07
-1.13215e-05
2.5081e-07
1.06571e-06
-1.03725e-05
2.64294e-07
1.22817e-06
-9.35515e-06
2.78795e-07
1.40084e-06
-8.40676e-06
2.93022e-07
1.59074e-06
-7.60177e-06
3.0571e-07
1.8006e-06
-6.96675e-06
3.16084e-07
2.02834e-06
-6.49485e-06
3.23985e-07
2.26839e-06
-6.15911e-06
3.29841e-07
2.51449e-06
-5.92609e-06
3.34188e-07
2.76455e-06
-5.76597e-06
3.37303e-07
3.01937e-06
-5.654e-06
3.39674e-07
3.27851e-06
-5.57163e-06
3.41773e-07
3.54023e-06
-5.50486e-06
3.43841e-07
3.802e-06
-5.44087e-06
3.46096e-07
4.06079e-06
-5.3674e-06
3.48693e-07
4.31301e-06
-5.27208e-06
3.51652e-07
4.55422e-06
-5.14232e-06
3.55023e-07
4.77688e-06
-4.96239e-06
3.59833e-07
4.96896e-06
-4.7088e-06
3.67767e-07
5.11901e-06
-4.34486e-06
3.76551e-07
5.20751e-06
-3.80981e-06
3.8864e-07
5.20976e-06
-3.02005e-06
4.03096e-07
5.12737e-06
-1.84678e-06
4.15683e-07
4.77165e-06
4.48121e-07
4.17172e-07
4.46493e-06
2.39068e-06
4.11321e-07
3.9667e-06
6.43732e-06
3.73373e-07
3.12256e-06
1.15365e-05
3.07643e-07
1.91472e-06
1.55353e-05
2.37076e-07
7.21484e-07
1.58884e-05
1.45783e-07
9.67081e-06
5.16133e-08
5.59683e-08
-4.63596e-06
8.15381e-08
2.5809e-07
-1.00698e-05
1.62549e-07
5.00784e-07
-1.22658e-05
1.97531e-07
7.4069e-07
-1.27242e-05
2.1529e-07
9.66477e-07
-1.24695e-05
2.27491e-07
1.17699e-06
-1.17741e-05
2.39712e-07
1.38015e-06
-1.08309e-05
2.52657e-07
1.58512e-06
-9.8292e-06
2.66356e-07
1.80031e-06
-8.90455e-06
2.79785e-07
2.03239e-06
-8.12847e-06
2.91815e-07
2.28441e-06
-7.5232e-06
3.01683e-07
2.5556e-06
-7.07796e-06
3.09292e-07
2.84271e-06
-6.76393e-06
3.1516e-07
3.1425e-06
-6.5481e-06
3.19734e-07
3.45266e-06
-6.40189e-06
3.23269e-07
3.77317e-06
-6.30302e-06
3.2599e-07
4.10441e-06
-6.23373e-06
3.28271e-07
4.44553e-06
-6.17922e-06
3.30553e-07
4.79483e-06
-6.12624e-06
3.33262e-07
5.14975e-06
-6.06194e-06
3.36693e-07
5.50639e-06
-5.97315e-06
3.41341e-07
5.85916e-06
-5.84634e-06
3.47975e-07
6.20158e-06
-5.66592e-06
3.57539e-07
6.52508e-06
-5.40894e-06
3.72638e-07
6.81936e-06
-5.03405e-06
3.90247e-07
7.05835e-06
-4.46706e-06
4.12461e-07
7.19042e-06
-3.60009e-06
4.40372e-07
7.16217e-06
-2.30241e-06
4.75022e-07
6.74505e-06
3.48596e-07
5.08128e-07
6.07009e-06
2.54809e-06
5.10045e-07
4.86456e-06
7.18289e-06
4.53373e-07
3.23866e-06
1.27961e-05
3.61202e-07
1.70327e-06
1.68103e-05
2.54998e-07
5.11101e-07
1.69254e-05
1.47643e-07
1.01348e-05
4.68214e-08
1.08914e-07
-4.83949e-06
9.047e-08
3.57227e-07
-1.04844e-05
1.6327e-07
6.19841e-07
-1.27231e-05
1.92255e-07
8.67718e-07
-1.3181e-05
2.06707e-07
1.09782e-06
-1.2919e-05
2.17173e-07
1.31699e-06
-1.22228e-05
2.2706e-07
1.53704e-06
-1.12907e-05
2.37216e-07
1.76756e-06
-1.03104e-05
2.47988e-07
2.01397e-06
-9.41252e-06
2.58811e-07
2.2793e-06
-8.6654e-06
2.68855e-07
2.56407e-06
-8.08812e-06
2.77469e-07
2.86666e-06
-7.66774e-06
2.84589e-07
3.18459e-06
-7.37491e-06
2.90537e-07
3.51627e-06
-7.17769e-06
2.95426e-07
3.86111e-06
-7.0486e-06
2.99377e-07
4.21877e-06
-6.9658e-06
3.0257e-07
4.58889e-06
-6.91174e-06
3.05269e-07
4.97049e-06
-6.87152e-06
3.07984e-07
5.3619e-06
-6.83156e-06
3.11103e-07
5.75971e-06
-6.77824e-06
3.15554e-07
6.1583e-06
-6.69727e-06
3.22481e-07
6.55073e-06
-6.57443e-06
3.32472e-07
6.92971e-06
-6.3946e-06
3.46299e-07
7.28314e-06
-6.13471e-06
3.68575e-07
7.59302e-06
-5.74722e-06
3.98895e-07
7.83054e-06
-5.13879e-06
4.2877e-07
7.91953e-06
-4.17432e-06
4.78471e-07
7.72658e-06
-2.66344e-06
5.46132e-07
7.09773e-06
3.4359e-07
6.25868e-07
5.97279e-06
3.00354e-06
6.61884e-07
4.2185e-06
8.3015e-06
6.29166e-07
2.36386e-06
1.41294e-05
5.16547e-07
1.02595e-06
1.77608e-05
3.81978e-07
2.12251e-07
1.7476e-05
2.56218e-07
1.02258e-05
1.21125e-07
1.33904e-07
-5.07247e-06
9.50666e-08
3.97822e-07
-1.09061e-05
1.54949e-07
6.61883e-07
-1.3167e-05
1.77523e-07
9.06918e-07
-1.36184e-05
1.90247e-07
1.13564e-06
-1.3351e-05
2.01126e-07
1.36064e-06
-1.26608e-05
2.10691e-07
1.59502e-06
-1.17471e-05
2.19566e-07
1.84517e-06
-1.07911e-05
2.27975e-07
2.1117e-06
-9.91736e-06
2.35694e-07
2.39276e-06
-9.19161e-06
2.4253e-07
2.68649e-06
-8.63282e-06
2.48401e-07
2.99158e-06
-8.22874e-06
2.53397e-07
3.30752e-06
-7.95084e-06
2.57507e-07
3.63488e-06
-7.76809e-06
2.60548e-07
3.97467e-06
-7.65343e-06
2.62503e-07
4.32763e-06
-7.58485e-06
2.63468e-07
4.69379e-06
-7.54434e-06
2.6371e-07
5.07208e-06
-7.51663e-06
2.63975e-07
5.46001e-06
-7.48779e-06
2.65312e-07
5.85362e-06
-7.44323e-06
2.68276e-07
6.24673e-06
-7.36706e-06
2.73464e-07
6.63045e-06
-7.24413e-06
2.8261e-07
6.99313e-06
-7.05953e-06
2.98673e-07
7.3211e-06
-6.78871e-06
3.22008e-07
7.58926e-06
-6.37544e-06
3.55461e-07
7.75843e-06
-5.70669e-06
3.93421e-07
7.67646e-06
-4.55825e-06
4.58446e-07
7.21867e-06
-2.77748e-06
5.6261e-07
6.32148e-06
5.5203e-07
6.80075e-07
4.93563e-06
3.63506e-06
7.46523e-07
3.16705e-06
9.3141e-06
7.49599e-07
1.57157e-06
1.50676e-05
6.52434e-07
5.97191e-07
1.82198e-05
5.09763e-07
1.11074e-07
1.75928e-05
3.62467e-07
1.01668e-05
1.69787e-07
1.66748e-07
-5.33281e-06
8.9859e-08
4.47708e-07
-1.13266e-05
1.36957e-07
7.16164e-07
-1.35935e-05
1.55929e-07
9.60385e-07
-1.40318e-05
1.67245e-07
1.18762e-06
-1.37566e-05
1.76468e-07
1.41159e-06
-1.30712e-05
1.844e-07
1.64465e-06
-1.21739e-05
1.9153e-07
1.89156e-06
-1.12379e-05
1.97601e-07
2.15191e-06
-1.03823e-05
2.02219e-07
2.42324e-06
-9.67062e-06
2.05317e-07
2.70401e-06
-9.1231e-06
2.07171e-07
2.99399e-06
-8.72914e-06
2.08121e-07
3.29413e-06
-8.46145e-06
2.0818e-07
3.60605e-06
-8.28967e-06
2.07352e-07
3.93117e-06
-8.18673e-06
2.05808e-07
4.27049e-06
-8.13002e-06
2.03388e-07
4.62297e-06
-8.10098e-06
2.01578e-07
4.98871e-06
-8.0843e-06
1.99232e-07
5.36632e-06
-8.06625e-06
1.98028e-07
5.75295e-06
-8.03105e-06
1.98254e-07
6.14306e-06
-7.96e-06
1.9979e-07
6.52726e-06
-7.83645e-06
2.04982e-07
6.89264e-06
-7.64454e-06
2.16258e-07
7.21858e-06
-7.35498e-06
2.36639e-07
7.46174e-06
-6.8897e-06
2.67084e-07
7.53344e-06
-6.08772e-06
3.03659e-07
7.27827e-06
-4.7049e-06
3.93829e-07
6.54515e-06
-2.5532e-06
4.99722e-07
5.47613e-06
9.75152e-07
6.37034e-07
3.9844e-06
4.38296e-06
7.36383e-07
2.35379e-06
1.01477e-05
7.9131e-07
1.04978e-06
1.56334e-05
7.33172e-07
3.51583e-07
1.83006e-05
6.10721e-07
4.46603e-08
1.745e-05
4.41631e-07
9.98369e-06
2.276e-07
1.82955e-07
-5.59648e-06
7.76317e-08
4.65125e-07
-1.1726e-05
1.15086e-07
7.24314e-07
-1.39878e-05
1.33389e-07
9.54179e-07
-1.44081e-05
1.44889e-07
1.1623e-06
-1.41188e-05
1.52517e-07
1.35963e-06
-1.34282e-05
1.57933e-07
1.55739e-06
-1.25353e-05
1.61899e-07
1.76419e-06
-1.16111e-05
1.64532e-07
1.98425e-06
-1.077e-05
1.65773e-07
2.21709e-06
-1.00711e-05
1.6576e-07
2.46023e-06
-9.533e-06
1.64892e-07
2.711e-06
-9.14599e-06
1.64253e-07
2.96853e-06
-8.88441e-06
1.63601e-07
3.2333e-06
-8.71906e-06
1.62786e-07
3.50637e-06
-8.62321e-06
1.61519e-07
3.78887e-06
-8.57386e-06
1.59373e-07
4.08186e-06
-8.55211e-06
1.561e-07
4.38698e-06
-8.54283e-06
1.51282e-07
4.70453e-06
-8.53231e-06
1.46312e-07
5.03265e-06
-8.50302e-06
1.41595e-07
5.36548e-06
-8.43326e-06
1.38136e-07
5.69355e-06
-8.30477e-06
1.37928e-07
6.0029e-06
-8.09884e-06
1.4256e-07
6.26399e-06
-7.77547e-06
1.56755e-07
6.41576e-06
-7.2271e-06
1.82134e-07
6.34216e-06
-6.24636e-06
2.27822e-07
5.96066e-06
-4.61163e-06
2.82682e-07
5.01267e-06
-1.99011e-06
3.7835e-07
4.13031e-06
1.34372e-06
5.07627e-07
2.72278e-06
5.16942e-06
6.15802e-07
1.2943e-06
1.08637e-05
7.07944e-07
3.29608e-07
1.58902e-05
7.04887e-07
-2.93528e-08
1.80364e-05
6.20384e-07
-1.05381e-07
1.70491e-05
4.71901e-07
9.63721e-06
2.40926e-07
1.71472e-07
-5.83447e-06
6.40588e-08
4.19776e-07
-1.20708e-05
9.48112e-08
6.32246e-07
-1.43154e-05
1.13845e-07
8.10133e-07
-1.47135e-05
1.2626e-07
9.65078e-07
-1.44085e-05
1.33494e-07
1.11011e-06
-1.37122e-05
1.37708e-07
1.25862e-06
-1.28254e-05
1.40188e-07
1.42086e-06
-1.19162e-05
1.41455e-07
1.60146e-06
-1.10937e-05
1.41608e-07
1.79943e-06
-1.04113e-05
1.40743e-07
2.00982e-06
-9.88399e-06
1.39111e-07
2.22863e-06
-9.5025e-06
1.36217e-07
2.45312e-06
-9.24363e-06
1.33242e-07
2.68363e-06
-9.08007e-06
1.28982e-07
2.92041e-06
-8.98604e-06
1.24458e-07
3.16511e-06
-8.93859e-06
1.18368e-07
3.41887e-06
-8.91954e-06
1.11921e-07
3.68347e-06
-8.91389e-06
1.04618e-07
3.9579e-06
-8.90594e-06
9.7247e-08
4.24098e-06
-8.8781e-06
8.99641e-08
4.5279e-06
-8.80605e-06
8.37655e-08
4.80815e-06
-8.6677e-06
8.0487e-08
5.06264e-06
-8.43805e-06
8.23112e-08
5.25526e-06
-8.05956e-06
8.86472e-08
5.31643e-06
-7.3945e-06
1.02712e-07
5.17137e-06
-6.23273e-06
1.26795e-07
4.75088e-06
-4.37549e-06
1.78468e-07
3.94541e-06
-1.4635e-06
2.72396e-07
3.35351e-06
1.54501e-06
3.8436e-07
2.29712e-06
5.71098e-06
5.09356e-07
1.25294e-06
1.12884e-05
6.15338e-07
4.96575e-07
1.60074e-05
6.36143e-07
1.57004e-07
1.77949e-05
5.77814e-07
1.56369e-08
1.67347e-05
4.50714e-07
9.42703e-06
2.25731e-07
1.71569e-07
-6.0564e-06
4.88596e-08
4.10836e-07
-1.23905e-05
7.95392e-08
6.19108e-07
-1.46255e-05
1.00952e-07
7.97371e-07
-1.50079e-05
1.15472e-07
9.55665e-07
-1.46896e-05
1.22062e-07
1.10346e-06
-1.39848e-05
1.23999e-07
1.25011e-06
-1.30961e-05
1.23223e-07
1.40384e-06
-1.21921e-05
1.21343e-07
1.57197e-06
-1.13799e-05
1.1727e-07
1.75535e-06
-1.0709e-05
1.13515e-07
1.95182e-06
-1.0191e-05
1.09747e-07
2.1587e-06
-9.81615e-06
1.05971e-07
2.37608e-06
-9.56281e-06
1.01012e-07
2.6046e-06
-9.40488e-06
9.54881e-08
2.84623e-06
-9.31705e-06
8.85535e-08
3.10158e-06
-9.27556e-06
8.0768e-08
3.37647e-06
-9.26676e-06
7.15035e-08
3.67397e-06
-9.27381e-06
6.15778e-08
3.986e-06
-9.26995e-06
5.10785e-08
4.31145e-06
-9.2445e-06
4.00041e-08
4.64872e-06
-9.17296e-06
2.86882e-08
4.98767e-06
-9.02622e-06
1.85985e-08
5.30751e-06
-8.77052e-06
1.15788e-08
5.55668e-06
-8.31922e-06
9.28232e-09
5.64517e-06
-7.49706e-06
1.26203e-08
5.46953e-06
-6.08587e-06
2.69212e-08
5.00155e-06
-3.97117e-06
6.13992e-08
4.32873e-06
-9.26349e-07
1.33304e-07
3.58299e-06
2.06026e-06
2.28283e-07
2.40912e-06
6.53e-06
3.52904e-07
1.40173e-06
1.18197e-05
4.74535e-07
7.35982e-07
1.6146e-05
5.26011e-07
3.34448e-07
1.76968e-05
4.98371e-07
1.0582e-07
1.65694e-05
3.91933e-07
9.34186e-06
1.90913e-07
1.80006e-07
-6.27025e-06
3.30877e-08
3.92054e-07
-1.2662e-05
5.89615e-08
5.52773e-07
-1.48769e-05
9.0336e-08
6.78096e-07
-1.52414e-05
1.07789e-07
7.77994e-07
-1.49056e-05
1.15712e-07
8.64957e-07
-1.41894e-05
1.17317e-07
9.51574e-07
-1.32978e-05
1.14674e-07
1.04943e-06
-1.23989e-05
1.08537e-07
1.16152e-06
-1.15968e-05
1.04386e-07
1.29155e-06
-1.09379e-05
9.84077e-08
1.4392e-06
-1.04311e-05
9.19658e-08
1.60263e-06
-1.00655e-05
8.54853e-08
1.78185e-06
-9.82115e-06
7.86653e-08
1.97862e-06
-9.67349e-06
7.13631e-08
2.19529e-06
-9.59788e-06
6.3669e-08
2.43366e-06
-9.56915e-06
5.47029e-08
2.69671e-06
-9.57502e-06
4.46306e-08
2.98506e-06
-9.59497e-06
3.21676e-08
3.29197e-06
-9.59573e-06
1.82033e-08
3.61872e-06
-9.57547e-06
3.49362e-09
3.96808e-06
-9.51091e-06
-1.2222e-08
4.33447e-06
-9.36506e-06
-2.84637e-08
4.70425e-06
-9.09717e-06
-4.41817e-08
5.02414e-06
-8.58117e-06
-5.9131e-08
5.1961e-06
-7.59615e-06
-7.43957e-08
5.0793e-06
-5.89495e-06
-7.6276e-08
4.63901e-06
-3.4778e-06
-5.58406e-08
3.95342e-06
-2.45674e-07
1.88771e-09
2.93e-06
2.99598e-06
8.48741e-08
1.60532e-06
7.64493e-06
2.07352e-07
5.92828e-07
1.25058e-05
3.24423e-07
5.52403e-08
1.62921e-05
3.90034e-07
-1.50517e-07
1.75348e-05
3.66238e-07
-1.54483e-07
1.62906e-05
2.80469e-07