/*--------------------------------*- C++ -*----------------------------------*\
| =========                 |                                                 |
| \\      /  F ield         | OpenFOAM: The Open Source CFD Toolbox           |
|  \\    /   O peration     | Version:  2.0.x                                 |
|   \\  /    A nd           | Web:      www.OpenFOAM.org                      |
|    \\/     M anipulation  |                                                 |
\*---------------------------------------------------------------------------*/
FoamFile
{
    version     2.0;
    format      ascii;
    class       volScalarField;
    location    "100";
    object      T;
}
// * * * * * * * * * * * * * * * * * * * * * * * * * * * * * * * * * * * * * //

dimensions      [0 0 0 1 0 0 0];

internalField   nonuniform List<scalar> 
78750
(
288.263
288.499
288.74
288.97
289.179
289.37
289.532
289.666
289.771
289.853
289.918
289.972
290.022
290.067
290.109
290.171
290.251
290.344
290.444
290.547
290.651
290.755
290.862
290.972
291.087
291.206
291.33
291.457
291.586
291.712
291.832
292.027
292.817
295.838
302.938
288.405
288.935
289.442
289.904
290.312
290.669
290.973
291.217
291.402
291.531
291.615
291.646
291.641
291.622
291.571
291.489
291.397
291.305
291.228
291.18
291.164
291.165
291.176
291.217
291.291
291.392
291.513
291.646
291.782
291.92
292.086
292.442
293.636
296.954
303.478
288.576
289.439
290.185
290.782
291.3
291.756
292.107
292.332
292.431
292.433
292.402
292.345
292.275
292.201
292.131
292.074
292.031
292.002
291.987
291.984
291.99
292.008
292.036
292.072
292.118
292.174
292.235
292.302
292.385
292.521
292.81
293.55
295.372
298.77
304.224
288.648
289.585
290.312
290.889
291.409
291.863
292.218
292.474
292.639
292.723
292.737
292.716
292.683
292.652
292.626
292.606
292.595
292.589
292.588
292.593
292.602
292.612
292.625
292.642
292.663
292.691
292.727
292.78
292.871
293.058
293.488
294.485
296.544
299.843
304.694
288.658
289.596
290.32
290.895
291.414
291.865
292.219
292.476
292.65
292.762
292.829
292.868
292.88
292.88
292.875
292.87
292.867
292.867
292.87
292.875
292.882
292.89
292.899
292.911
292.928
292.952
292.991
293.059
293.187
293.452
294.018
295.199
297.366
300.563
305.018
288.658
289.595
290.313
290.868
291.356
291.781
292.125
292.389
292.585
292.723
292.816
292.876
292.914
292.938
292.952
292.961
292.966
292.969
292.972
292.976
292.981
292.987
292.996
293.008
293.026
293.056
293.105
293.192
293.356
293.679
294.333
295.615
297.825
300.951
305.189
288.641
289.547
290.253
290.785
291.243
291.657
292.005
292.282
292.494
292.651
292.763
292.841
292.893
292.928
292.951
292.967
292.979
292.987
292.994
293
293.006
293.012
293.021
293.034
293.054
293.087
293.143
293.247
293.442
293.821
294.559
295.938
298.204
301.283
305.334
288.635
289.533
290.243
290.777
291.232
291.645
291.993
292.27
292.482
292.639
292.752
292.831
292.885
292.922
292.947
292.965
292.978
292.988
292.996
293.004
293.012
293.02
293.031
293.046
293.069
293.106
293.174
293.304
293.553
294.028
294.905
296.424
298.711
301.677
305.496
288.634
289.531
290.241
290.772
291.218
291.624
291.972
292.253
292.469
292.631
292.747
292.828
292.883
292.92
292.946
292.964
292.978
292.989
292.998
293.006
293.015
293.026
293.038
293.054
293.076
293.11
293.171
293.291
293.532
294.005
294.889
296.416
298.702
301.659
305.488
288.626
289.51
290.221
290.747
291.183
291.582
291.931
292.214
292.438
292.606
292.729
292.816
292.875
292.914
292.942
292.962
292.977
292.989
292.999
293.008
293.019
293.031
293.046
293.064
293.087
293.119
293.169
293.256
293.428
293.798
294.569
296.044
298.405
301.485
305.397
288.626
289.51
290.22
290.747
291.184
291.583
291.928
292.215
292.437
292.606
292.729
292.816
292.875
292.914
292.942
292.962
292.977
292.99
293
293.011
293.023
293.037
293.055
293.078
293.106
293.146
293.204
293.297
293.46
293.785
294.5
295.951
298.354
301.473
305.4
288.623
289.501
290.214
290.74
291.17
291.562
291.908
292.195
292.423
292.595
292.72
292.809
292.87
292.911
292.94
292.961
292.978
292.991
293.003
293.015
293.029
293.046
293.068
293.097
293.133
293.186
293.271
293.412
293.656
294.107
294.957
296.515
298.931
301.965
305.633
288.628
289.52
290.246
290.779
291.211
291.603
291.944
292.223
292.442
292.61
292.733
292.818
292.877
292.916
292.944
292.964
292.98
292.993
293.006
293.019
293.034
293.054
293.079
293.112
293.156
293.221
293.325
293.505
293.836
294.425
295.448
297.121
299.451
302.285
305.761
288.632
289.533
290.269
290.808
291.242
291.632
291.97
292.245
292.46
292.621
292.737
292.82
292.877
292.916
292.944
292.965
292.981
292.994
293.006
293.02
293.037
293.058
293.085
293.12
293.167
293.233
293.327
293.482
293.778
294.349
295.397
297.111
299.453
302.274
305.743
288.643
289.566
290.319
290.871
291.313
291.705
292.039
292.303
292.502
292.65
292.756
292.831
292.884
292.921
292.947
292.967
292.982
292.996
293.009
293.024
293.042
293.066
293.097
293.138
293.193
293.267
293.367
293.507
293.737
294.2
295.147
296.856
299.289
302.195
305.713
288.645
289.572
290.33
290.887
291.332
291.727
292.06
292.326
292.526
292.671
292.774
292.845
292.894
292.928
292.953
292.971
292.986
292.999
293.013
293.029
293.05
293.078
293.115
293.164
293.23
293.32
293.443
293.611
293.855
294.322
295.26
296.98
299.429
302.323
305.762
288.652
289.592
290.356
290.92
291.37
291.767
292.104
292.366
292.561
292.7
292.796
292.862
292.907
292.938
292.96
292.977
292.991
293.004
293.018
293.036
293.061
293.094
293.138
293.197
293.278
293.39
293.548
293.769
294.086
294.673
295.746
297.538
299.905
302.635
305.89
288.654
289.594
290.359
290.922
291.373
291.771
292.107
292.373
292.569
292.708
292.803
292.868
292.911
292.942
292.963
292.98
292.994
293.007
293.023
293.043
293.071
293.109
293.16
293.23
293.325
293.463
293.661
293.947
294.37
295.124
296.376
298.235
300.458
302.963
306.014
288.657
289.602
290.368
290.933
291.386
291.782
292.116
292.379
292.575
292.715
292.81
292.875
292.918
292.947
292.968
292.984
292.997
293.011
293.028
293.05
293.081
293.125
293.185
293.265
293.379
293.545
293.787
294.126
294.612
295.439
296.768
298.665
300.788
303.145
306.085
288.66
289.611
290.38
290.948
291.404
291.801
292.133
292.392
292.584
292.72
292.814
292.877
292.919
292.948
292.969
292.985
292.999
293.014
293.032
293.057
293.092
293.142
293.211
293.307
293.446
293.657
293.966
294.398
294.998
295.917
297.279
299.137
301.13
303.341
306.164
288.665
289.624
290.397
290.969
291.43
291.83
292.158
292.412
292.6
292.732
292.823
292.883
292.923
292.951
292.971
292.987
293.001
293.016
293.034
293.061
293.099
293.154
293.231
293.339
293.5
293.739
294.08
294.558
295.254
296.287
297.723
299.546
301.404
303.476
306.212
288.668
289.632
290.403
290.974
291.434
291.836
292.167
292.422
292.609
292.739
292.828
292.887
292.926
292.953
292.973
292.988
293.002
293.018
293.038
293.067
293.109
293.169
293.256
293.383
293.572
293.843
294.198
294.651
295.312
296.327
297.779
299.611
301.44
303.485
306.215
288.671
289.639
290.412
290.98
291.44
291.838
292.171
292.429
292.616
292.746
292.833
292.891
292.93
292.956
292.975
292.99
293.004
293.02
293.042
293.073
293.119
293.188
293.289
293.444
293.684
294.029
294.462
294.973
295.676
296.698
298.125
299.889
301.629
303.591
306.259
288.673
289.641
290.412
290.981
291.444
291.845
292.177
292.43
292.616
292.746
292.833
292.891
292.93
292.956
292.976
292.991
293.006
293.023
293.045
293.078
293.128
293.203
293.316
293.495
293.783
294.199
294.716
295.305
296.044
297.043
298.405
300.077
301.737
303.647
306.283
288.674
289.641
290.41
290.983
291.442
291.845
292.173
292.427
292.614
292.744
292.832
292.891
292.93
292.956
292.976
292.991
293.006
293.024
293.047
293.082
293.133
293.21
293.328
293.522
293.846
294.325
294.935
295.631
296.451
297.471
298.795
300.386
301.965
303.803
306.345
288.675
289.642
290.416
290.982
291.445
291.844
292.174
292.432
292.617
292.747
292.834
292.891
292.93
292.957
292.976
292.991
293.006
293.022
293.045
293.079
293.131
293.211
293.336
293.545
293.892
294.408
295.078
295.88
296.8
297.885
299.192
300.688
302.174
303.94
306.39
288.678
289.651
290.417
290.984
291.441
291.842
292.176
292.43
292.617
292.745
292.833
292.891
292.93
292.956
292.975
292.991
293.005
293.022
293.044
293.078
293.13
293.211
293.338
293.55
293.903
294.416
295.082
295.882
296.82
297.929
299.247
300.725
302.189
303.938
306.384
288.679
289.654
290.422
290.983
291.442
291.845
292.174
292.428
292.614
292.744
292.833
292.891
292.93
292.956
292.975
292.991
293.005
293.021
293.043
293.076
293.128
293.213
293.345
293.578
293.966
294.486
295.124
295.891
296.829
297.946
299.278
300.749
302.197
303.951
306.388
288.681
289.659
290.433
290.995
291.441
291.835
292.165
292.418
292.605
292.737
292.828
292.889
292.929
292.956
292.975
292.99
293.005
293.021
293.043
293.076
293.128
293.213
293.365
293.638
294.096
294.726
295.402
296.08
296.911
297.995
299.308
300.772
302.211
303.963
306.407
288.685
289.669
290.445
291.007
291.456
291.844
292.164
292.416
292.603
292.736
292.826
292.887
292.928
292.956
292.975
292.991
293.006
293.023
293.045
293.08
293.132
293.211
293.347
293.605
294.089
294.841
295.676
296.478
297.327
298.337
299.557
300.913
302.32
304.037
306.422
288.694
289.699
290.49
291.058
291.505
291.887
292.2
292.44
292.616
292.742
292.83
292.89
292.929
292.956
292.975
292.99
293.005
293.021
293.043
293.074
293.123
293.199
293.324
293.534
293.899
294.475
295.328
296.294
297.264
298.316
299.536
300.895
302.287
303.998
306.406
288.702
289.716
290.506
291.076
291.523
291.904
292.217
292.457
292.632
292.754
292.836
292.892
292.929
292.955
292.975
292.99
293.005
293.021
293.043
293.074
293.123
293.198
293.32
293.53
293.888
294.43
295.141
295.989
296.952
298.07
299.367
300.771
302.169
303.895
306.366
288.704
289.716
290.508
291.074
291.52
291.902
292.215
292.46
292.635
292.759
292.842
292.897
292.934
292.958
292.976
292.991
293.005
293.022
293.043
293.075
293.123
293.198
293.318
293.533
293.904
294.456
295.162
295.983
296.937
298.057
299.353
300.762
302.163
303.884
306.364
288.702
289.715
290.508
291.075
291.52
291.902
292.215
292.457
292.635
292.758
292.841
292.897
292.934
292.959
292.977
292.991
293.005
293.02
293.039
293.067
293.109
293.176
293.285
293.484
293.858
294.476
295.261
296.089
296.993
298.073
299.349
300.758
302.159
303.881
306.363
288.701
289.712
290.504
291.071
291.519
291.901
292.213
292.455
292.634
292.758
292.842
292.897
292.934
292.959
292.977
292.992
293.005
293.02
293.039
293.067
293.107
293.169
293.264
293.427
293.726
294.248
295.025
295.936
296.889
297.972
299.248
300.679
302.1
303.833
306.345
288.697
289.698
290.486
291.056
291.507
291.895
292.211
292.454
292.633
292.758
292.841
292.897
292.934
292.959
292.977
292.991
293.005
293.02
293.039
293.065
293.103
293.16
293.248
293.394
293.651
294.094
294.771
295.65
296.64
297.774
299.097
300.573
302.019
303.768
306.316
288.686
289.67
290.446
291.013
291.469
291.864
292.189
292.44
292.625
292.753
292.839
292.896
292.933
292.959
292.977
292.991
293.004
293.019
293.038
293.064
293.101
293.156
293.24
293.379
293.621
294.022
294.625
295.446
296.411
297.56
298.926
300.451
301.932
303.709
306.294
288.676
289.643
290.406
290.963
291.411
291.807
292.142
292.406
292.602
292.739
292.832
292.892
292.931
292.957
292.975
292.99
293.003
293.017
293.035
293.061
293.098
293.153
293.236
293.371
293.608
294.004
294.582
295.336
296.269
297.421
298.817
300.387
301.893
303.683
306.281
288.67
289.627
290.381
290.927
291.368
291.758
292.09
292.359
292.563
292.711
292.812
292.879
292.923
292.952
292.972
292.987
293.001
293.015
293.033
293.058
293.094
293.148
293.23
293.366
293.609
294.006
294.578
295.331
296.264
297.409
298.81
300.39
301.888
303.68
306.282
288.67
289.625
290.377
290.919
291.355
291.743
292.072
292.337
292.541
292.69
292.794
292.864
292.912
292.943
292.966
292.982
292.996
293.011
293.028
293.052
293.087
293.141
293.224
293.365
293.613
294.036
294.636
295.377
296.269
297.419
298.802
300.388
301.897
303.682
306.284
288.678
289.65
290.406
290.944
291.37
291.745
292.068
292.331
292.533
292.681
292.786
292.858
292.905
292.938
292.962
292.979
292.995
293.009
293.027
293.052
293.087
293.141
293.225
293.366
293.63
294.08
294.715
295.487
296.399
297.508
298.893
300.461
301.966
303.738
306.316
288.691
289.689
290.464
291.01
291.437
291.807
292.119
292.367
292.555
292.693
292.79
292.858
292.905
292.937
292.961
292.978
292.994
293.009
293.027
293.052
293.089
293.146
293.235
293.389
293.685
294.189
294.88
295.672
296.577
297.677
299.023
300.535
302.01
303.784
306.333
288.699
289.705
290.494
291.054
291.49
291.864
292.177
292.421
292.6
292.725
292.81
292.869
292.91
292.94
292.961
292.979
292.994
293.009
293.027
293.051
293.088
293.144
293.236
293.408
293.736
294.294
295.056
295.921
296.864
297.963
299.262
300.686
302.069
303.792
306.331
288.7
289.708
290.495
291.054
291.49
291.867
292.178
292.427
292.61
292.739
292.827
292.885
292.923
292.948
292.967
292.982
292.996
293.01
293.027
293.05
293.083
293.133
293.212
293.35
293.625
294.144
294.926
295.836
296.801
297.92
299.242
300.699
302.13
303.843
306.34
288.701
289.709
290.496
291.056
291.489
291.867
292.176
292.427
292.61
292.74
292.828
292.887
292.926
292.952
292.97
292.985
292.997
293.011
293.026
293.048
293.079
293.124
293.193
293.313
293.549
294.009
294.764
295.734
296.767
297.916
299.242
300.71
302.108
303.823
306.338
288.7
289.708
290.495
291.054
291.491
291.867
292.185
292.43
292.609
292.74
292.829
292.887
292.926
292.952
292.97
292.985
292.997
293.011
293.027
293.048
293.078
293.122
293.189
293.294
293.483
293.843
294.487
295.442
296.555
297.798
299.177
300.676
302.105
303.817
306.334
288.699
289.708
290.494
291.053
291.49
291.868
292.185
292.433
292.617
292.745
292.832
292.889
292.927
292.953
292.971
292.985
292.997
293.011
293.026
293.048
293.078
293.123
293.189
293.292
293.462
293.76
294.259
295.044
296.072
297.317
298.783
300.41
301.935
303.697
306.279
288.698
289.703
290.491
291.052
291.488
291.866
292.183
292.435
292.619
292.75
292.837
292.894
292.932
292.957
292.974
292.988
293
293.013
293.029
293.05
293.081
293.126
293.191
293.291
293.46
293.752
294.217
294.888
295.796
296.979
298.472
300.184
301.779
303.614
306.255
288.698
289.705
290.494
291.053
291.489
291.869
292.187
292.432
292.617
292.749
292.837
292.894
292.932
292.957
292.975
292.989
293.001
293.014
293.03
293.052
293.084
293.129
293.196
293.298
293.469
293.767
294.24
294.906
295.79
296.96
298.442
300.156
301.772
303.61
306.257
288.7
289.709
290.498
291.053
291.489
291.868
292.189
292.437
292.621
292.748
292.836
292.894
292.931
292.957
292.975
292.989
293.002
293.015
293.032
293.055
293.088
293.135
293.205
293.313
293.496
293.818
294.325
295.012
295.867
296.975
298.443
300.169
301.772
303.608
306.257
288.708
289.735
290.529
291.084
291.514
291.886
292.195
292.442
292.625
292.752
292.837
292.894
292.932
292.957
292.975
292.989
293.002
293.016
293.033
293.057
293.091
293.139
293.209
293.317
293.503
293.836
294.368
295.098
296.001
297.123
298.532
300.22
301.803
303.627
306.269
288.714
289.751
290.557
291.123
291.56
291.931
292.236
292.469
292.638
292.756
292.837
292.893
292.931
292.956
292.975
292.989
293.002
293.016
293.033
293.057
293.091
293.139
293.21
293.32
293.512
293.857
294.405
295.157
296.091
297.238
298.651
300.302
301.848
303.641
306.273
288.729
289.787
290.6
291.164
291.599
291.968
292.265
292.491
292.656
292.77
292.847
292.899
292.933
292.957
292.975
292.989
293.002
293.016
293.033
293.057
293.092
293.142
293.216
293.332
293.536
293.904
294.474
295.234
296.181
297.366
298.816
300.465
301.977
303.724
306.303
288.731
289.789
290.602
291.168
291.606
291.975
292.275
292.504
292.669
292.783
292.855
292.903
292.935
292.957
292.975
292.989
293.002
293.016
293.034
293.058
293.094
293.146
293.225
293.353
293.584
294.007
294.645
295.434
296.355
297.516
298.96
300.575
302.062
303.801
306.341
288.73
289.788
290.6
291.168
291.603
291.973
292.274
292.505
292.67
292.783
292.859
292.908
292.94
292.961
292.977
292.99
293.002
293.016
293.034
293.059
293.095
293.148
293.229
293.366
293.619
294.085
294.804
295.715
296.704
297.853
299.22
300.741
302.166
303.861
306.353
288.729
289.787
290.601
291.168
291.605
291.973
292.273
292.503
292.669
292.784
292.86
292.909
292.941
292.963
292.978
292.99
293.002
293.014
293.03
293.052
293.084
293.131
293.201
293.31
293.514
293.913
294.598
295.552
296.618
297.805
299.177
300.702
302.134
303.834
306.343
288.727
289.783
290.597
291.165
291.603
291.973
292.274
292.502
292.668
292.783
292.859
292.909
292.941
292.963
292.978
292.99
293.002
293.014
293.03
293.052
293.084
293.13
293.198
293.305
293.49
293.827
294.407
295.274
296.341
297.572
298.99
300.56
302.027
303.753
306.308
288.726
289.781
290.592
291.159
291.597
291.968
292.271
292.501
292.667
292.782
292.859
292.908
292.941
292.962
292.978
292.991
293.002
293.014
293.03
293.052
293.084
293.13
293.198
293.304
293.483
293.812
294.351
295.13
296.127
297.346
298.811
300.466
301.973
303.72
306.295
288.724
289.775
290.583
291.149
291.589
291.961
292.266
292.499
292.667
292.782
292.858
292.908
292.94
292.963
292.979
292.992
293.003
293.016
293.032
293.054
293.086
293.132
293.2
293.304
293.486
293.815
294.352
295.119
296.105
297.323
298.786
300.456
301.969
303.719
306.298
288.721
289.766
290.569
291.133
291.572
291.949
292.258
292.494
292.663
292.778
292.855
292.906
292.94
292.963
292.979
292.992
293.004
293.018
293.036
293.06
293.094
293.144
293.215
293.325
293.512
293.846
294.385
295.145
296.108
297.322
298.797
300.448
301.966
303.714
306.298
288.721
289.765
290.565
291.124
291.561
291.937
292.247
292.487
292.659
292.777
292.855
292.906
292.94
292.962
292.979
292.991
293.003
293.017
293.033
293.057
293.09
293.139
293.21
293.32
293.511
293.849
294.394
295.147
296.111
297.318
298.787
300.458
301.967
303.715
306.296
288.721
289.762
290.559
291.116
291.552
291.927
292.24
292.482
292.656
292.776
292.855
292.906
292.939
292.961
292.977
292.989
293
293.011
293.026
293.048
293.08
293.127
293.199
293.314
293.523
293.911
294.517
295.277
296.176
297.338
298.817
300.463
301.973
303.718
306.302
288.72
289.76
290.554
291.109
291.544
291.92
292.231
292.472
292.647
292.769
292.849
292.901
292.935
292.958
292.974
292.987
292.998
293.011
293.026
293.048
293.08
293.128
293.2
293.32
293.541
293.968
294.644
295.542
296.547
297.681
299.049
300.623
302.076
303.788
306.334
288.714
289.742
290.527
291.077
291.508
291.881
292.192
292.438
292.621
292.75
292.836
292.893
292.929
292.954
292.972
292.986
292.998
293.01
293.026
293.048
293.08
293.128
293.201
293.316
293.531
293.939
294.603
295.495
296.534
297.735
299.134
300.689
302.125
303.817
306.339
288.702
289.707
290.478
291.022
291.449
291.821
292.137
292.392
292.586
292.726
292.821
292.884
292.924
292.951
292.97
292.984
292.997
293.01
293.025
293.047
293.08
293.128
293.201
293.317
293.529
293.938
294.602
295.478
296.535
297.747
299.151
300.699
302.132
303.821
306.34
288.696
289.69
290.457
290.997
291.421
291.789
292.105
292.363
292.562
292.707
292.809
292.876
292.92
292.948
292.968
292.984
292.997
293.01
293.026
293.047
293.08
293.129
293.203
293.324
293.548
293.99
294.706
295.617
296.605
297.802
299.229
300.802
302.22
303.882
306.362
288.7
289.703
290.474
291.009
291.426
291.789
292.102
292.357
292.554
292.7
292.802
292.872
292.916
292.946
292.967
292.982
292.995
293.009
293.024
293.045
293.074
293.117
293.182
293.292
293.506
293.956
294.755
295.798
296.89
298.083
299.456
300.947
302.329
303.969
306.392
288.715
289.747
290.537
291.08
291.496
291.856
292.159
292.4
292.582
292.715
292.809
292.872
292.916
292.945
292.966
292.982
292.995
293.009
293.024
293.045
293.074
293.116
293.18
293.283
293.467
293.833
294.519
295.568
296.77
298.025
299.409
300.904
302.295
303.946
306.384
288.721
289.759
290.561
291.116
291.54
291.902
292.204
292.443
292.62
292.742
292.826
292.882
292.92
292.947
292.966
292.982
292.995
293.009
293.024
293.045
293.073
293.114
293.175
293.267
293.421
293.708
294.259
295.176
296.392
297.74
299.223
300.8
302.24
303.913
306.365
288.72
289.759
290.562
291.118
291.541
291.902
292.204
292.443
292.622
292.748
292.834
292.89
292.928
292.952
292.97
292.984
292.996
293.009
293.024
293.045
293.073
293.114
293.175
293.265
293.409
293.668
294.13
294.871
295.925
297.208
298.727
300.424
302
303.782
306.313
288.717
289.754
290.558
291.114
291.538
291.899
292.202
292.442
292.622
292.748
292.833
292.89
292.927
292.953
292.972
292.986
292.998
293.011
293.026
293.047
293.075
293.115
293.174
293.264
293.409
293.664
294.112
294.838
295.829
297.051
298.517
300.235
301.874
303.721
306.297
288.713
289.743
290.543
291.101
291.526
291.887
292.189
292.429
292.61
292.741
292.83
292.888
292.927
292.953
292.972
292.986
293
293.014
293.03
293.052
293.083
293.126
293.188
293.278
293.419
293.67
294.114
294.841
295.853
297.052
298.504
300.198
301.835
303.696
306.291
288.702
289.715
290.508
291.065
291.492
291.858
292.166
292.411
292.597
292.731
292.823
292.884
292.924
292.952
292.971
292.986
293
293.014
293.032
293.055
293.086
293.131
293.194
293.285
293.426
293.659
294.057
294.728
295.726
296.948
298.412
300.113
301.779
303.672
306.276
288.691
289.686
290.468
291.018
291.444
291.811
292.123
292.376
292.571
292.712
292.81
292.876
292.919
292.948
292.969
292.984
292.998
293.012
293.029
293.051
293.081
293.124
293.184
293.272
293.406
293.625
293.992
294.603
295.534
296.742
298.23
299.992
301.737
303.672
306.275
288.689
289.68
290.459
291.003
291.421
291.782
292.09
292.343
292.541
292.688
292.792
292.863
292.91
292.942
292.963
292.98
292.993
293.007
293.022
293.044
293.074
293.116
293.177
293.266
293.402
293.621
293.966
294.482
295.306
296.467
297.964
299.761
301.55
303.549
306.221
288.702
289.724
290.522
291.069
291.483
291.837
292.135
292.372
292.554
292.689
292.786
292.855
292.902
292.935
292.959
292.976
292.991
293.005
293.022
293.044
293.074
293.118
293.182
293.278
293.43
293.672
294.002
294.417
295.02
295.986
297.406
299.255
301.173
303.301
306.114
288.729
289.801
290.632
291.2
291.627
291.987
292.278
292.495
292.648
292.753
292.826
292.877
292.914
292.942
292.962
292.979
292.994
293.009
293.027
293.051
293.088
293.144
293.229
293.361
293.581
293.943
294.379
294.772
295.199
295.996
297.364
299.215
301.163
303.306
306.121
288.748
289.841
290.666
291.232
291.666
292.031
292.327
292.548
292.703
292.807
292.874
292.915
292.942
292.961
292.977
292.99
293.003
293.018
293.039
293.069
293.116
293.191
293.308
293.511
293.897
294.54
295.246
295.754
296.238
296.938
298.105
299.832
301.622
303.622
306.294
288.752
289.842
290.666
291.231
291.664
292.031
292.325
292.548
292.704
292.807
292.875
292.918
292.947
292.967
292.982
292.994
293.007
293.022
293.043
293.075
293.124
293.203
293.332
293.569
294.051
294.869
295.881
296.81
297.555
298.386
299.487
300.906
302.338
304.04
306.457
288.747
289.832
290.655
291.218
291.644
292.003
292.298
292.526
292.69
292.8
292.872
292.917
292.947
292.967
292.982
292.994
293.006
293.019
293.035
293.059
293.094
293.151
293.248
293.441
293.866
294.707
295.929
297.122
298.102
299.084
300.179
301.435
302.689
304.242
306.509
288.727
289.78
290.592
291.156
291.585
291.948
292.25
292.485
292.659
292.78
292.86
292.91
292.942
292.964
292.979
292.991
293.001
293.013
293.027
293.046
293.075
293.119
293.188
293.311
293.562
294.108
295.133
296.523
297.881
299.078
300.265
301.531
302.753
304.257
306.499
288.722
289.766
290.573
291.137
291.569
291.938
292.242
292.479
292.652
292.772
292.852
292.904
292.938
292.96
292.976
292.988
292.998
293.009
293.023
293.042
293.068
293.107
293.165
293.259
293.428
293.775
294.478
295.664
297.116
298.584
300.041
301.452
302.728
304.239
306.481
288.721
289.764
290.569
291.131
291.564
291.933
292.237
292.474
292.648
292.768
292.849
292.902
292.935
292.958
292.974
292.987
292.998
293.009
293.023
293.041
293.067
293.105
293.161
293.246
293.39
293.658
294.175
295.092
296.404
297.902
299.521
301.144
302.558
304.152
306.451
288.714
289.746
290.544
291.104
291.536
291.906
292.213
292.454
292.632
292.758
292.842
292.897
292.933
292.956
292.973
292.986
292.997
293.008
293.022
293.041
293.067
293.104
293.159
293.239
293.367
293.591
294.007
294.741
295.871
297.271
298.896
300.636
302.215
303.964
306.382
288.71
289.737
290.534
291.092
291.521
291.889
292.196
292.438
292.619
292.747
292.834
292.892
292.93
292.954
292.972
292.985
292.997
293.008
293.022
293.04
293.066
293.104
293.158
293.238
293.36
293.566
293.923
294.525
295.492
296.77
298.342
300.148
301.887
303.792
306.316
288.707
289.728
290.525
291.081
291.51
291.878
292.186
292.429
292.611
292.742
292.832
292.891
292.929
292.954
292.972
292.985
292.997
293.008
293.022
293.04
293.066
293.104
293.158
293.238
293.36
293.565
293.915
294.462
295.259
296.38
297.87
299.706
301.561
303.596
306.245
288.706
289.722
290.52
291.077
291.506
291.873
292.181
292.425
292.609
292.741
292.831
292.89
292.928
292.954
292.972
292.985
292.997
293.008
293.022
293.04
293.067
293.105
293.162
293.245
293.376
293.598
293.966
294.497
295.221
296.257
297.691
299.523
301.405
303.482
306.197
288.707
289.73
290.529
291.09
291.518
291.884
292.192
292.436
292.621
292.749
292.838
292.895
292.931
292.955
292.973
292.986
292.997
293.009
293.022
293.041
293.068
293.109
293.169
293.26
293.407
293.665
294.104
294.701
295.399
296.326
297.705
299.524
301.405
303.484
306.2
288.706
289.729
290.53
291.089
291.518
291.881
292.189
292.434
292.62
292.75
292.837
292.894
292.931
292.955
292.973
292.986
292.998
293.009
293.023
293.043
293.072
293.114
293.179
293.276
293.437
293.745
294.305
295.081
295.928
296.927
298.18
299.845
301.607
303.598
306.261
288.707
289.726
290.524
291.084
291.516
291.89
292.199
292.441
292.62
292.75
292.837
292.894
292.931
292.955
292.973
292.986
292.998
293.01
293.024
293.044
293.073
293.115
293.176
293.272
293.445
293.795
294.439
295.371
296.447
297.577
298.889
300.466
302.021
303.816
306.353
288.71
289.736
290.537
291.098
291.526
291.892
292.2
292.441
292.621
292.749
292.836
292.893
292.93
292.955
292.972
292.984
292.995
293.005
293.017
293.034
293.057
293.092
293.146
293.231
293.381
293.684
294.286
295.272
296.502
297.782
299.184
300.749
302.231
303.945
306.389
288.711
289.741
290.544
291.106
291.534
291.898
292.204
292.443
292.619
292.744
292.831
292.889
292.927
292.952
292.97
292.983
292.993
293.003
293.015
293.03
293.051
293.083
293.131
293.205
293.328
293.559
294.031
294.886
296.139
297.564
299.098
300.737
302.248
303.96
306.388
288.72
289.767
290.581
291.149
291.585
291.952
292.249
292.478
292.645
292.763
292.843
292.896
292.931
292.954
292.97
292.983
292.993
293.003
293.014
293.029
293.051
293.082
293.13
293.202
293.32
293.531
293.929
294.639
295.766
297.165
298.78
300.535
302.148
303.926
306.368
288.722
289.772
290.587
291.152
291.587
291.955
292.252
292.479
292.646
292.764
292.844
292.897
292.931
292.954
292.97
292.982
292.993
293.003
293.014
293.029
293.051
293.082
293.13
293.203
293.32
293.528
293.912
294.548
295.482
296.739
298.316
300.15
301.882
303.775
306.32
288.724
289.773
290.585
291.154
291.588
291.953
292.25
292.478
292.646
292.764
292.845
292.899
292.933
292.956
292.972
292.984
292.994
293.004
293.015
293.03
293.051
293.083
293.131
293.204
293.321
293.528
293.913
294.544
295.446
296.675
298.247
300.09
301.842
303.756
306.31
288.723
289.769
290.583
291.151
291.585
291.953
292.25
292.478
292.645
292.764
292.845
292.898
292.933
292.957
292.973
292.985
292.996
293.006
293.018
293.035
293.059
293.095
293.15
293.233
293.369
293.618
294.077
294.79
295.691
296.785
298.269
300.097
301.845
303.761
306.319
288.719
289.761
290.573
291.141
291.574
291.939
292.239
292.472
292.642
292.763
292.844
292.898
292.933
292.957
292.973
292.986
292.997
293.008
293.02
293.038
293.064
293.102
293.158
293.244
293.384
293.65
294.15
294.961
296.038
297.221
298.607
300.274
301.904
303.772
306.325
288.71
289.739
290.545
291.112
291.546
291.913
292.217
292.454
292.631
292.756
292.84
292.896
292.932
292.956
292.973
292.986
292.997
293.008
293.021
293.038
293.062
293.096
293.146
293.221
293.339
293.544
293.946
294.682
295.802
297.112
298.569
300.241
301.927
303.8
306.325
288.699
289.711
290.509
291.074
291.509
291.878
292.186
292.43
292.613
292.743
292.832
292.891
292.93
292.955
292.973
292.985
292.996
293.007
293.019
293.036
293.059
293.094
293.145
293.219
293.335
293.533
293.874
294.48
295.51
296.892
298.496
300.22
301.914
303.799
306.321
288.689
289.685
290.475
291.035
291.468
291.839
292.15
292.398
292.588
292.725
292.82
292.883
292.925
292.952
292.97
292.984
292.995
293.006
293.019
293.036
293.059
293.094
293.145
293.22
293.337
293.532
293.863
294.364
295.108
296.231
297.782
299.703
301.568
303.594
306.233
288.684
289.67
290.451
291.008
291.439
291.81
292.121
292.373
292.566
292.708
292.807
292.875
292.919
292.948
292.968
292.983
292.995
293.006
293.02
293.037
293.064
293.102
293.16
293.247
293.383
293.615
294.001
294.527
295.169
296.132
297.573
299.455
301.402
303.516
306.208
288.681
289.661
290.438
290.993
291.424
291.793
292.104
292.356
292.552
292.697
292.799
292.869
292.915
292.945
292.966
292.981
292.994
293.007
293.021
293.04
293.068
293.109
293.168
293.258
293.404
293.674
294.168
294.874
295.628
296.526
297.785
299.552
301.443
303.533
306.234
288.679
289.653
290.424
290.976
291.406
291.778
292.091
292.344
292.54
292.685
292.79
292.862
292.91
292.941
292.963
292.979
292.993
293.006
293.021
293.04
293.067
293.106
293.165
293.255
293.415
293.729
294.309
295.186
296.236
297.324
298.583
300.173
301.835
303.745
306.327
288.68
289.66
290.441
290.994
291.418
291.782
292.09
292.341
292.537
292.683
292.787
292.858
292.906
292.938
292.961
292.977
292.991
293.004
293.019
293.038
293.064
293.101
293.155
293.237
293.372
293.632
294.149
295.034
296.226
297.511
298.921
300.516
302.074
303.868
306.362
288.692
289.694
290.488
291.049
291.479
291.847
292.152
292.39
292.568
292.696
292.79
292.857
292.903
292.935
292.958
292.974
292.988
293
293.013
293.029
293.052
293.085
293.134
293.208
293.33
293.559
294.009
294.799
295.954
297.298
298.801
300.456
302.051
303.861
306.35
288.694
289.694
290.488
291.051
291.486
291.857
292.166
292.41
292.592
292.725
292.812
292.869
292.909
292.937
292.957
292.973
292.987
292.998
293.011
293.027