/*--------------------------------*- C++ -*----------------------------------*\
| =========                 |                                                 |
| \\      /  F ield         | OpenFOAM: The Open Source CFD Toolbox           |
|  \\    /   O peration     | Version:  2.0.x                                 |
|   \\  /    A nd           | Web:      www.OpenFOAM.org                      |
|    \\/     M anipulation  |                                                 |
\*---------------------------------------------------------------------------*/
FoamFile
{
    version     2.0;
    format      ascii;
    class       volVectorField;
    location    "100";
    object      U;
}
// * * * * * * * * * * * * * * * * * * * * * * * * * * * * * * * * * * * * * //

dimensions      [0 1 -1 0 0 0 0];

internalField   nonuniform List<vector> 
78750
(
(0.000413254 0.00101064 -0.00278857)
(0.0025564 -0.0016899 -0.00532345)
(0.00685383 -0.00674939 -0.00607718)
(0.0124742 -0.0117036 -0.00613057)
(0.0190906 -0.0144696 -0.00588036)
(0.0258046 -0.0190069 -0.00506607)
(0.032327 -0.0218784 -0.00431523)
(0.0382438 -0.021973 -0.00401332)
(0.0433116 -0.0211312 -0.00373648)
(0.0480624 -0.0185449 -0.00396036)
(0.0518791 -0.0160605 -0.00422057)
(0.0552019 -0.013327 -0.00457767)
(0.0577554 -0.0106202 -0.00505782)
(0.0597829 -0.00757109 -0.00590066)
(0.0609448 -0.00543898 -0.00713486)
(0.0612717 -0.00151317 -0.00878769)
(0.060911 -6.97693e-05 -0.0102017)
(0.060198 0.00188676 -0.0117413)
(0.0589523 0.00347385 -0.013188)
(0.0573402 0.00482739 -0.0144893)
(0.0554637 0.00610916 -0.0156176)
(0.0533966 0.00742394 -0.0165502)
(0.0512297 0.00882389 -0.0172754)
(0.0489459 0.0103755 -0.0177868)
(0.0465995 0.0121423 -0.0180619)
(0.0440265 0.014114 -0.01809)
(0.0414291 0.0161521 -0.0178792)
(0.0380389 0.0189209 -0.0173609)
(0.0349181 0.0201477 -0.0168812)
(0.0309021 0.0213591 -0.016217)
(0.0267078 0.0225527 -0.0154923)
(0.0220783 0.0237198 -0.0148891)
(0.0172412 0.0256695 -0.0141554)
(0.0104674 0.030322 -0.0110511)
(0.00362612 0.0281191 -0.00548224)
(0.00070884 -0.0135949 -0.000597924)
(0.00535437 -0.0394133 4.09752e-05)
(0.011878 -0.0571768 0.00107542)
(0.0178101 -0.0679929 0.00208339)
(0.0243159 -0.0710015 0.0031734)
(0.0271682 -0.0680058 0.00339286)
(0.0318704 -0.0599001 0.00320052)
(0.0337522 -0.0514961 0.0031394)
(0.0353601 -0.0432514 0.00306222)
(0.0361908 -0.0366353 0.00357415)
(0.036727 -0.0301016 0.00423198)
(0.0369797 -0.0237058 0.00498772)
(0.0369558 -0.0173514 0.00570737)
(0.0368087 -0.0107561 0.00632214)
(0.0365291 -0.00162743 0.00604342)
(0.0357546 0.0068771 0.00481978)
(0.0350038 0.0116664 0.00363697)
(0.033847 0.0174673 0.00154288)
(0.0325288 0.0224269 -0.00114229)
(0.0310282 0.0263441 -0.0042373)
(0.0293959 0.0291953 -0.00749887)
(0.0277074 0.0310051 -0.010295)
(0.0261219 0.0320833 -0.01226)
(0.0243455 0.032985 -0.013885)
(0.0226919 0.0337292 -0.0147322)
(0.0215493 0.0345553 -0.0150506)
(0.0196368 0.03701 -0.0142322)
(0.018508 0.039528 -0.0134657)
(0.0171704 0.0429132 -0.0133853)
(0.0155941 0.0462967 -0.0131286)
(0.0137526 0.04975 -0.0126258)
(0.0115849 0.054133 -0.0119039)
(0.00869758 0.0626811 -0.0105504)
(0.0046952 0.0747686 -0.00750152)
(0.000809339 0.0649775 -0.00322892)
(0.000742281 -0.0342508 0.00040865)
(0.00393848 -0.0775112 0.00226464)
(0.00701472 -0.09368 0.00338306)
(0.00874659 -0.0930067 0.00374988)
(0.0101902 -0.0851177 0.00406067)
(0.0104243 -0.0738274 0.00461434)
(0.00914566 -0.0617292 0.00487201)
(0.0088078 -0.0497114 0.00489952)
(0.00781964 -0.0392019 0.00495959)
(0.00683274 -0.0305205 0.00508296)
(0.00603737 -0.0235832 0.00527525)
(0.00521707 -0.0177645 0.00552324)
(0.00439511 -0.0123435 0.00570521)
(0.00365509 -0.00675072 0.00567602)
(0.00308867 -0.000763556 0.00533656)
(0.00301447 0.0045323 0.00468655)
(0.00292606 0.0101705 0.00355912)
(0.00305864 0.0156501 0.00207267)
(0.00319805 0.0205241 0.000461114)
(0.00349186 0.024734 -0.0011458)
(0.00385057 0.0283553 -0.00260652)
(0.0042144 0.0315366 -0.00379808)
(0.0045447 0.0344473 -0.00469467)
(0.00481193 0.0372302 -0.00535216)
(0.00503443 0.0398732 -0.00577863)
(0.00504716 0.0422525 -0.00603341)
(0.00534209 0.0439233 -0.0063367)
(0.00556924 0.0466814 -0.00611318)
(0.00531343 0.0513121 -0.00509528)
(0.005473 0.0563217 -0.00456016)
(0.00540664 0.062065 -0.00455855)
(0.00470167 0.0708763 -0.00433809)
(0.00321135 0.0847319 -0.00365431)
(0.00120249 0.0955253 -0.00244707)
(-0.000118733 0.0745877 -0.000915791)
(0.000394806 -0.0435046 0.00185287)
(0.00101326 -0.0861416 0.0049661)
(0.000982448 -0.0968438 0.00660546)
(0.000775974 -0.0947257 0.00739782)
(2.98026e-06 -0.0856474 0.00745155)
(-3.16938e-05 -0.0724866 0.00695905)
(-0.00108176 -0.0581682 0.00674476)
(-0.00197653 -0.0455145 0.00666774)
(-0.00289059 -0.0353847 0.00675227)
(-0.00378561 -0.0275282 0.0069987)
(-0.00455022 -0.0213598 0.00708677)
(-0.00522171 -0.0158644 0.00709709)
(-0.00581719 -0.0105966 0.00695061)
(-0.00642265 -0.00536956 0.00665183)
(-0.00672074 -0.00132049 0.00632461)
(-0.00690197 0.00376599 0.00581875)
(-0.00686337 0.00852673 0.00528628)
(-0.00679828 0.0129548 0.00467964)
(-0.00641672 0.0169499 0.00408307)
(-0.00593758 0.0205489 0.00351933)
(-0.00532601 0.0238484 0.00300151)
(-0.00461046 0.0269547 0.00252868)
(-0.00380013 0.0299602 0.00207943)
(-0.00289703 0.0329289 0.00161602)
(-0.00191564 0.035883 0.00107864)
(-0.000983435 0.0388384 0.000379807)
(0.000186192 0.041956 -0.000630375)
(0.00103156 0.0453826 -0.000919467)
(0.00188888 0.0496692 -0.000739285)
(0.00275586 0.0551496 -0.000398846)
(0.00305045 0.0634442 0.000382514)
(0.00294393 0.0767503 0.000829309)
(0.00198569 0.0944233 0.00108856)
(0.000627907 0.104037 0.00113774)
(-8.8591e-05 0.0760398 0.000739279)
(2.3433e-05 -0.0455137 0.00207834)
(-0.000172567 -0.0885681 0.00490232)
(-0.000547535 -0.0996775 0.00642518)
(-0.00106801 -0.0976816 0.00747113)
(-0.00155424 -0.0880033 0.00843939)
(-0.00212187 -0.0737491 0.00912905)
(-0.00259135 -0.0587987 0.00939261)
(-0.0030779 -0.0455475 0.00938721)
(-0.00362413 -0.0348944 0.00928379)
(-0.0042004 -0.0267966 0.00915547)
(-0.00488485 -0.0203272 0.0092115)
(-0.00549117 -0.0151055 0.00927343)
(-0.006093 -0.010603 0.00929025)
(-0.0065388 -0.00654754 0.00923341)
(-0.00688634 -0.00267962 0.00908604)
(-0.00704148 0.000408163 0.00892467)
(-0.00699303 0.00430936 0.00865405)
(-0.00675552 0.00759771 0.00844497)
(-0.006368 0.0106617 0.00816765)
(-0.0058478 0.0135245 0.00788577)
(-0.00520995 0.0162091 0.00762075)
(-0.00446682 0.0187754 0.00737176)
(-0.00362956 0.0213002 0.00712834)
(-0.00270344 0.0238691 0.00687138)
(-0.001695 0.0265795 0.0065777)
(-0.000632951 0.0295574 0.0062333)
(0.000463741 0.0330206 0.0058539)
(0.00151158 0.0372913 0.00555102)
(0.00244803 0.0429254 0.00533189)
(0.0031428 0.0509801 0.00516781)
(0.00338592 0.0633117 0.00505287)
(0.0030646 0.0813722 0.00472133)
(0.00203951 0.102422 0.00412443)
(0.000744727 0.111336 0.00324857)
(1.24794e-05 0.0779976 0.00167309)
(-4.38903e-05 -0.045234 0.00214786)
(-0.000434347 -0.0885419 0.00483066)
(-0.000941167 -0.0998216 0.00625151)
(-0.00142321 -0.0981184 0.0071391)
(-0.00174817 -0.0900787 0.00785946)
(-0.00183695 -0.0777513 0.00852687)
(-0.00173773 -0.063686 0.00909316)
(-0.00160865 -0.0500209 0.00948776)
(-0.00157477 -0.0381003 0.00970217)
(-0.00169742 -0.0284721 0.00979287)
(-0.00198024 -0.0210638 0.00983484)
(-0.00238991 -0.0154044 0.00987921)
(-0.00279416 -0.0110057 0.0099322)
(-0.00314713 -0.00752958 0.00997486)
(-0.00340536 -0.00471752 0.00998447)
(-0.00355395 -0.00222571 0.0100097)
(-0.00356155 -4.30179e-05 0.0100681)
(-0.0034092 0.00241302 0.010115)
(-0.00313352 0.00474676 0.0100776)
(-0.00273747 0.00697427 0.00998792)
(-0.00223237 0.00912829 0.00985922)
(-0.001631 0.0112495 0.00970355)
(-0.000954969 0.0134022 0.00952201)
(-0.000220943 0.0156779 0.00931577)
(0.000560372 0.018212 0.00908082)
(0.00137208 0.0212057 0.00881114)
(0.00219033 0.0249721 0.00850339)
(0.00296622 0.0300033 0.0081618)
(0.00361281 0.0371188 0.00779847)
(0.00401963 0.0476629 0.00743747)
(0.00399957 0.0635265 0.00707509)
(0.00347232 0.0861045 0.00669439)
(0.00238917 0.109741 0.00588296)
(0.00103558 0.117987 0.00455711)
(0.000136746 0.080569 0.00228664)
(-1.18418e-05 -0.0448259 0.00179538)
(-0.000282657 -0.0885048 0.00390443)
(-0.00054815 -0.101429 0.00503434)
(-0.000642023 -0.101822 0.00576955)
(-0.000663276 -0.0960428 0.00648871)
(-0.000586557 -0.0855623 0.00730325)
(-0.000421805 -0.0724479 0.00817624)
(-0.000231843 -0.058816 0.00898714)
(-7.26574e-05 -0.0461797 0.00963856)
(1.36731e-05 -0.0353939 0.0100971)
(1.22742e-05 -0.0267514 0.0104022)
(-6.64802e-05 -0.0201289 0.0106424)
(-0.000176873 -0.0152781 0.0106971)
(-0.000284218 -0.0118315 0.0106791)
(-0.00036298 -0.009385 0.010634)
(-0.000402895 -0.00738637 0.010668)
(-0.000380953 -0.00566026 0.010744)
(-0.000267595 -0.00410237 0.0108365)
(-5.20385e-05 -0.00263464 0.0109279)
(0.000262518 -0.00119459 0.0110052)
(0.000670446 0.000240636 0.011067)
(0.00115825 0.00174548 0.0111226)
(0.00173042 0.00347646 0.0111645)
(0.00236374 0.00549376 0.0111638)
(0.00303718 0.00794914 0.0110956)
(0.0037448 0.0110799 0.0109189)
(0.00444285 0.015292 0.0105966)
(0.00504971 0.0212284 0.0100846)
(0.0054759 0.029967 0.00933574)
(0.00562993 0.0432092 0.00835566)
(0.00518064 0.0634655 0.00735202)
(0.00415949 0.0891718 0.00603811)
(0.00255052 0.115902 0.00513872)
(0.00096627 0.124421 0.0040202)
(4.29528e-05 0.0837751 0.00207049)
(5.04434e-06 -0.0451867 0.00143398)
(-0.000127816 -0.0899604 0.00325192)
(-0.000254305 -0.104461 0.00424237)
(-0.000296687 -0.105343 0.00478374)
(-0.000351555 -0.099939 0.00524108)
(-0.000384205 -0.0899194 0.00579603)
(-0.0003601 -0.0773046 0.00655861)
(-0.000294662 -0.0640907 0.00734924)
(-0.000207455 -0.0517026 0.0081126)
(-0.000112706 -0.0409606 0.00876733)
(-1.73762e-05 -0.0322279 0.00925676)
(8.31841e-05 -0.0255113 0.00957804)
(0.000196894 -0.0205627 0.00977335)
(0.000323165 -0.0170139 0.00988775)
(0.000452791 -0.0144392 0.00995753)
(0.000584667 -0.0125397 0.00999208)
(0.000729487 -0.0112357 0.00996947)
(0.000891715 -0.0101139 0.00999917)
(0.00107965 -0.00912329 0.0100582)
(0.00131198 -0.00820472 0.0101314)
(0.00159431 -0.00726881 0.0102134)
(0.00191031 -0.00622081 0.0103009)
(0.00225355 -0.00495216 0.0103947)
(0.00261952 -0.00332643 0.0104948)
(0.0030162 -0.00113136 0.0106001)
(0.00338113 0.00156804 0.0107074)
(0.00374136 0.00635063 0.0108225)
(0.0040414 0.0138137 0.0107677)
(0.00426598 0.0253334 0.0103464)
(0.00419025 0.0426326 0.00941014)
(0.00373104 0.0671514 0.00812343)
(0.00284308 0.0990445 0.00646258)
(0.00163486 0.125929 0.00431343)
(0.000640717 0.132163 0.00282052)
(7.78924e-05 0.0860914 0.00130426)
(-1.99151e-05 -0.0454159 0.00160225)
(-0.000178285 -0.091195 0.00369887)
(-0.000304067 -0.106533 0.00484655)
(-0.000329865 -0.10801 0.00545028)
(-0.000331122 -0.103362 0.00590835)
(-0.000291183 -0.0942437 0.0063994)
(-0.000196943 -0.0823493 0.00684462)
(-7.15785e-05 -0.0696562 0.00723112)
(6.64041e-05 -0.0576518 0.00758534)
(0.000206371 -0.0472185 0.0079184)
(0.000348802 -0.0387558 0.00821727)
(0.000501799 -0.0322841 0.00846162)
(0.00067639 -0.0275492 0.00864438)
(0.000874901 -0.0241507 0.00877671)
(0.00109027 -0.021638 0.0088794)
(0.00131739 -0.019667 0.00896674)
(0.00153976 -0.0180673 0.00904284)
(0.00174948 -0.016765 0.00910225)
(0.00195209 -0.0157307 0.00913048)
(0.00214517 -0.0150269 0.00908773)
(0.00231918 -0.0141834 0.00909059)
(0.00246844 -0.0131583 0.00912676)
(0.00258628 -0.0118729 0.00919647)
(0.00268325 -0.0102308 0.00930616)
(0.00275369 -0.00798716 0.00948156)
(0.00273741 -0.0046127 0.00975859)
(0.00254776 0.000584752 0.0101394)
(0.00222625 0.00736627 0.0105459)
(0.00196127 0.0198462 0.0109313)
(0.00195741 0.0390636 0.0107673)
(0.00219552 0.0659999 0.00949938)
(0.00221515 0.0989396 0.00759484)
(0.00177181 0.127742 0.0057005)
(0.00122175 0.133426 0.0039112)
(0.000420557 0.0865763 0.00177896)
(-8.03917e-07 -0.0455161 0.0014129)
(-7.0717e-05 -0.0928229 0.00325418)
(-6.85433e-05 -0.109876 0.00430477)
(4.82407e-05 -0.112287 0.00488274)
(0.000179343 -0.108335 0.00532169)
(0.0003171 -0.0997906 0.0058073)
(0.0004829 -0.0882477 0.00622496)
(0.000662308 -0.0756954 0.00658101)
(0.000845392 -0.0636791 0.00687605)
(0.00103939 -0.053171 0.00711176)
(0.00122722 -0.0446496 0.00729268)
(0.00143014 -0.0381979 0.00742284)
(0.00165734 -0.0335668 0.00751012)
(0.00190869 -0.0303155 0.00756622)
(0.00217806 -0.0279354 0.00760714)
(0.00246972 -0.0260858 0.00763979)
(0.00278389 -0.0246048 0.00766527)
(0.00311974 -0.0233772 0.00768339)
(0.00347067 -0.0222875 0.00769687)
(0.00381576 -0.0212219 0.00770959)
(0.00414118 -0.0200773 0.0077233)
(0.00444734 -0.01876 0.00773589)
(0.00472809 -0.0172259 0.00772974)
(0.00497648 -0.0155701 0.00764712)
(0.00515089 -0.0131387 0.00764039)
(0.00523867 -0.00938088 0.00773412)
(0.00528097 -0.00315792 0.00795773)
(0.00503127 0.0039518 0.00826093)
(0.00452186 0.0137533 0.00878396)
(0.00427758 0.0314545 0.00946219)
(0.00437088 0.0590467 0.00957873)
(0.0045748 0.0965535 0.00874046)
(0.00379371 0.128752 0.00754605)
(0.00220654 0.137938 0.00565916)
(0.000625066 0.0908749 0.00281289)
(8.25267e-06 -0.0460186 0.00135854)
(2.62726e-06 -0.0948152 0.00320528)
(5.40491e-05 -0.112962 0.00423416)
(0.000200841 -0.11591 0.0047642)
(0.000357317 -0.112349 0.00514065)
(0.000528929 -0.104193 0.00554252)
(0.000693884 -0.0930562 0.00590075)
(0.000889246 -0.0808967 0.00621053)
(0.00111468 -0.0692488 0.00645613)
(0.00134897 -0.0590844 0.00663318)
(0.0016199 -0.0508764 0.00674396)
(0.0019112 -0.0447169 0.00679941)
(0.0022359 -0.040358 0.00681548)
(0.00258476 -0.0373436 0.00680888)
(0.00295449 -0.0351594 0.0067962)
(0.00335335 -0.0334933 0.00678246)
(0.00377958 -0.0322016 0.00676696)
(0.0042364 -0.0311634 0.00674867)
(0.00472319 -0.0302596 0.00672781)
(0.005238 -0.0293717 0.00670585)
(0.00577829 -0.0283771 0.00668348)
(0.00634102 -0.0271481 0.00666125)
(0.00691877 -0.0255538 0.00663615)
(0.00747964 -0.0234507 0.00660267)
(0.00800416 -0.0206273 0.00655334)
(0.00850879 -0.0168276 0.00642608)
(0.00896579 -0.0105886 0.00635121)
(0.00919192 -0.000124315 0.00633388)
(0.00900578 0.00891299 0.00644312)
(0.00837683 0.0275022 0.00696768)
(0.0074071 0.0569661 0.00759048)
(0.00623217 0.0969419 0.00765796)
(0.0046252 0.137207 0.00641605)
(0.00188318 0.149056 0.00468436)
(0.00013264 0.0978258 0.00241303)
(1.79441e-05 -0.0467048 0.00131416)
(5.43848e-05 -0.0972185 0.0031405)
(0.00017973 -0.116822 0.00412308)
(0.000398603 -0.120504 0.00460773)
(0.000620241 -0.117425 0.00495224)
(0.000839133 -0.109669 0.00527372)
(0.00104444 -0.0988563 0.00559576)
(0.00126994 -0.0869303 0.00589543)
(0.00148257 -0.075465 0.00614425)
(0.00171544 -0.0654362 0.00632774)
(0.00200311 -0.0573529 0.00643891)
(0.0023065 -0.0513237 0.00648526)
(0.00263396 -0.047119 0.00648263)
(0.00297547 -0.0442787 0.00645077)
(0.00333327 -0.0422812 0.00641191)
(0.00371874 -0.0408214 0.0063755)
(0.00412952 -0.0397529 0.00634163)
(0.0045664 -0.0389426 0.0063108)
(0.00502748 -0.0382649 0.00628405)
(0.00551064 -0.0375973 0.0062615)
(0.0060131 -0.0368156 0.00624466)
(0.0065311 -0.0357882 0.00623265)
(0.00706262 -0.0343739 0.00622058)
(0.00760091 -0.0324236 0.00619783)
(0.00813942 -0.0296767 0.00615912)
(0.00866241 -0.0254961 0.00610209)
(0.00916297 -0.0186682 0.00593139)
(0.00974396 -0.00576334 0.00568653)
(0.00981367 0.00746295 0.00552918)
(0.00947057 0.0265466 0.00556167)
(0.00828673 0.0623048 0.00590526)
(0.00532868 0.109482 0.00564322)
(0.0022281 0.150887 0.00452675)
(-5.18753e-05 0.159413 0.00304599)
(-0.000584344 0.100367 0.00132723)
(-2.31785e-05 -0.0473881 0.00127811)
(-3.65209e-06 -0.0994694 0.00306233)
(0.000145267 -0.120182 0.00394753)
(0.00036527 -0.124336 0.00435262)
(0.000576398 -0.121453 0.00463881)
(0.000772923 -0.113849 0.00491827)
(0.000953989 -0.103224 0.00521272)
(0.0011276 -0.0915753 0.00550053)
(0.00133652 -0.0804554 0.00575412)
(0.00156848 -0.0707967 0.00595224)
(0.0018026 -0.06305 0.00609026)
(0.00207495 -0.0572766 0.00616946)
(0.00236583 -0.0532428 0.00619728)
(0.00265423 -0.0505372 0.0061876)
(0.00294378 -0.0486725 0.00616458)
(0.003242 -0.0473383 0.00614771)
(0.00354465 -0.0463791 0.00613837)
(0.00384961 -0.0456567 0.00613771)
(0.00415276 -0.0450414 0.00614793)
(0.00444911 -0.0444077 0.00617117)
(0.0047332 -0.043628 0.00620844)
(0.00499867 -0.0425694 0.00625816)
(0.00524222 -0.0410909 0.00631691)
(0.00545569 -0.0390462 0.00637779)
(0.00562653 -0.0361348 0.006438)
(0.00574258 -0.0315856 0.0064978)
(0.00574541 -0.0240994 0.0064834)
(0.0058823 -0.0121617 0.00617094)
(0.00577504 0.00801725 0.00571363)
(0.00540051 0.0308006 0.00541349)
(0.00454982 0.0724013 0.00514008)
(0.0027466 0.122457 0.0048073)
(0.00110813 0.160491 0.00407744)
(9.52715e-05 0.163796 0.00281485)
(-0.000153341 0.0999283 0.00107881)
(-5.09308e-05 -0.0478946 0.0013849)
(1.85707e-05 -0.101903 0.00320875)
(0.000245745 -0.123984 0.00399381)
(0.00053708 -0.1287 0.00431388)
(0.000807986 -0.126069 0.00453863)
(0.00105628 -0.118633 0.00478301)
(0.001273 -0.108173 0.00505559)
(0.00149594 -0.0967177 0.00532311)
(0.00171387 -0.0858136 0.00555249)
(0.00194468 -0.0763762 0.00572911)
(0.00221224 -0.0688048 0.00585112)
(0.00250625 -0.0631236 0.0059257)
(0.00281789 -0.0590927 0.00596136)
(0.00312854 -0.0563459 0.00596507)
(0.00343492 -0.0544573 0.00595146)
(0.00373921 -0.0530992 0.00594794)
(0.00404263 -0.0520892 0.00595858)
(0.00434014 -0.0512865 0.00598351)
(0.00462693 -0.0505573 0.00602393)
(0.00489717 -0.0497713 0.0060817)
(0.00514368 -0.0487985 0.00615808)
(0.00536225 -0.0475058 0.0062534)
(0.00554596 -0.0457612 0.00636639)
(0.00567699 -0.0433702 0.00650025)
(0.00572754 -0.0399363 0.00667197)
(0.00566529 -0.0348379 0.00689792)
(0.00542392 -0.0271841 0.00710509)
(0.00502043 -0.0151488 0.00703374)
(0.00434842 0.00630295 0.00659069)
(0.00405148 0.0297918 0.00601472)
(0.00407774 0.0725144 0.00517884)
(0.00381962 0.123734 0.00432787)
(0.00285247 0.16161 0.00325569)
(0.00148843 0.165104 0.00206555)
(0.000237916 0.100891 0.00083825)
(-1.5093e-05 -0.0486695 0.001536)
(0.000148732 -0.104883 0.00327237)
(0.000425945 -0.12805 0.0038822)
(0.00077889 -0.133066 0.00411896)
(0.00109345 -0.130448 0.00432324)
(0.00138092 -0.122944 0.0045856)
(0.00163098 -0.112509 0.00489939)
(0.00188413 -0.101233 0.00521219)
(0.00215762 -0.0906513 0.00547565)
(0.00246022 -0.0816103 0.00566566)
(0.00279538 -0.0744354 0.00578361)
(0.00316505 -0.0690776 0.00584712)
(0.00356063 -0.0652538 0.00587679)
(0.00397159 -0.0625959 0.00588756)
(0.00438653 -0.0607698 0.00588702)
(0.0048059 -0.0594773 0.0058942)
(0.00523562 -0.0585078 0.00592375)
(0.00567093 -0.0577161 0.00597624)
(0.00610887 -0.0569635 0.00605241)
(0.00654466 -0.0561161 0.00615175)
(0.00697627 -0.0550403 0.00627292)
(0.00739619 -0.0536035 0.00641694)
(0.00779151 -0.0516304 0.00659595)
(0.00814935 -0.0488515 0.00682541)
(0.00845759 -0.0448821 0.00712665)
(0.00870487 -0.0391006 0.00754628)
(0.00884121 -0.0306409 0.00808104)
(0.00879076 -0.0179428 0.00852974)
(0.0081484 0.00580315 0.0085244)
(0.0077782 0.0269156 0.00813815)
(0.00726271 0.0701837 0.00645151)
(0.00631667 0.125189 0.00411101)
(0.00444189 0.170306 0.00266893)
(0.00199803 0.17631 0.00130974)
(0.000204467 0.108841 0.000257501)
(3.10491e-05 -0.0499516 0.0017353)
(0.000296296 -0.108672 0.00330027)
(0.000640046 -0.132864 0.00369521)
(0.00107472 -0.138158 0.00381754)
(0.00145166 -0.135589 0.0039697)
(0.00180349 -0.128098 0.00421613)
(0.00211539 -0.117752 0.00454427)
(0.00243343 -0.106633 0.00489968)
(0.00277672 -0.0962732 0.0052238)
(0.00315114 -0.0875033 0.00547666)
(0.00356139 -0.08061 0.00564616)
(0.00400596 -0.075504 0.00574582)
(0.00447855 -0.0718789 0.00579981)
(0.00497253 -0.0693654 0.0058313)
(0.00548336 -0.0676393 0.00585784)
(0.00601085 -0.0664495 0.00588986)
(0.00655518 -0.0655942 0.00594019)
(0.00711736 -0.0649073 0.00601688)
(0.00769531 -0.0642435 0.00612397)
(0.00828625 -0.0634641 0.00626234)
(0.00888607 -0.0624283 0.00643773)
(0.00948601 -0.0609895 0.00664841)
(0.0100777 -0.0589751 0.00689214)
(0.0106522 -0.0561306 0.00719405)
(0.011203 -0.0520224 0.00762163)
(0.0117312 -0.0459118 0.00826332)
(0.0122052 -0.0367827 0.0092043)
(0.0125657 -0.0232696 0.0104133)
(0.0123412 0.0043762 0.0117727)
(0.0117133 0.0268965 0.0120203)
(0.00981004 0.0747269 0.0099841)
(0.00686109 0.135681 0.00690738)
(0.00377687 0.183514 0.0041268)
(0.000952043 0.188889 0.00220768)
(-0.000480592 0.11594 0.000625569)
(0.000103075 -0.0518913 0.00186704)
(0.000494272 -0.113059 0.00318097)
(0.000857907 -0.137891 0.00338486)
(0.00128791 -0.143247 0.00341377)
(0.00166565 -0.140605 0.0035093)
(0.00200282 -0.133058 0.00370012)
(0.00232737 -0.122775 0.00397545)
(0.00269953 -0.111862 0.00429523)
(0.00309493 -0.101815 0.00461394)
(0.00352673 -0.0934191 0.00489057)
(0.00399495 -0.0869046 0.00510196)
(0.00449436 -0.0821382 0.00524854)
(0.00501899 -0.0787964 0.00534612)
(0.00556501 -0.0765215 0.00541535)
(0.00613155 -0.0750058 0.00547538)
(0.00671874 -0.0740072 0.00554004)
(0.00732675 -0.0733329 0.00561851)
(0.00795492 -0.0728201 0.00571984)
(0.00860157 -0.0723201 0.00584804)
(0.00926403 -0.0716864 0.00600838)
(0.0099351 -0.0707674 0.0061979)
(0.0106044 -0.0694101 0.0064103)
(0.0112616 -0.0674424 0.00666055)
(0.0118941 -0.0646122 0.00698641)
(0.012491 -0.0604364 0.00748051)
(0.0130657 -0.0539963 0.00827811)
(0.013542 -0.0438924 0.00953596)
(0.0138552 -0.0285436 0.0113986)
(0.0135388 0.00310443 0.014075)
(0.0125701 0.0300102 0.0153189)
(0.0095875 0.0866417 0.0146388)
(0.00524719 0.153492 0.0116126)
(0.00180259 0.199316 0.00861791)
(-0.000199747 0.200022 0.00626164)
(-0.000683455 0.119108 0.0031008)
(0.000150574 -0.0543719 0.00190898)
(0.0005633 -0.117777 0.00292895)
(0.000914074 -0.142955 0.00299247)
(0.00134914 -0.148271 0.00295984)
(0.00172222 -0.145565 0.00300098)
(0.00209221 -0.138063 0.00311446)
(0.00243726 -0.127958 0.00328738)
(0.00280416 -0.11731 0.00350585)
(0.00322559 -0.107547 0.00374654)
(0.00368837 -0.0994242 0.00397998)
(0.00418135 -0.0931577 0.00417999)
(0.00469326 -0.0886089 0.00433441)
(0.00521963 -0.085459 0.00444741)
(0.00576092 -0.0833618 0.00453213)
(0.00631972 -0.0820176 0.00460328)
(0.00689867 -0.0811845 0.00467269)
(0.00749919 -0.0806654 0.0047503)
(0.00812153 -0.0802926 0.00484481)
(0.00876256 -0.0799133 0.00496303)
(0.00941787 -0.0793716 0.00510117)
(0.0100796 -0.0785025 0.00525165)
(0.0107376 -0.0771438 0.00542038)
(0.0113741 -0.0751317 0.00562079)
(0.0119703 -0.0722058 0.00589488)
(0.0125278 -0.067792 0.00634457)
(0.0130441 -0.0607157 0.00711021)
(0.0132824 -0.049357 0.00832989)
(0.0135086 -0.0310645 0.0110036)
(0.0125131 0.00451528 0.0148425)
(0.0107441 0.0372325 0.0171)
(0.00734965 0.100014 0.0180072)
(0.00338673 0.166235 0.0157673)
(0.000839547 0.205742 0.0124378)
(-0.000313212 0.202056 0.00902679)
(-0.00047039 0.118574 0.00439132)
(0.000186169 -0.0570827 0.00173141)
(0.000633999 -0.122399 0.00245052)
(0.000993729 -0.14774 0.00245626)
(0.00143122 -0.152963 0.00241521)
(0.00180477 -0.150212 0.00242612)
(0.00217323 -0.142815 0.00246903)
(0.00252296 -0.132959 0.00252527)
(0.00289646 -0.122598 0.00259289)
(0.00330889 -0.113089 0.00267424)
(0.00375218 -0.105166 0.00276625)
(0.00422045 -0.0990601 0.00285844)
(0.00470669 -0.0946536 0.00294004)
(0.00520662 -0.091642 0.00300861)
(0.00572153 -0.0896874 0.00306761)
(0.00625515 -0.0884916 0.00312167)
(0.00681096 -0.0878081 0.0031741)
(0.00738825 -0.087435 0.0032276)
(0.00798732 -0.0872008 0.00328338)
(0.00860697 -0.0869496 0.00334673)
(0.00924664 -0.0865137 0.003414)
(0.0098995 -0.0857051 0.0034772)
(0.0105549 -0.0843505 0.00354141)
(0.0111947 -0.0822841 0.00362212)
(0.0117883 -0.0792232 0.00376037)
(0.0124102 -0.0744872 0.00403939)
(0.0126241 -0.066738 0.00452367)
(0.0130376 -0.0526546 0.00662943)
(0.0125474 -0.0312254 0.00918109)
(0.0110518 0.00760458 0.0134071)
(0.00885697 0.0440885 0.0163899)
(0.00545735 0.109633 0.0188601)
(0.00220148 0.175297 0.0178753)
(0.000174822 0.210305 0.0152695)
(-0.000498041 0.202975 0.0118532)
(-0.000395625 0.117724 0.00612395)
(0.000202345 -0.0600367 0.00142288)
(0.000656328 -0.127011 0.00191799)
(0.00101054 -0.152356 0.00194262)
(0.00143089 -0.157407 0.00194116)
(0.00177565 -0.154549 0.00196322)
(0.00210384 -0.147166 0.00198432)
(0.00240829 -0.137434 0.00197944)
(0.00272112 -0.127239 0.00194961)
(0.00306768 -0.117886 0.00190952)
(0.00344663 -0.110083 0.00187477)
(0.0038502 -0.10407 0.00185435)
(0.00427147 -0.0997486 0.00184748)
(0.00470233 -0.0968277 0.00185047)
(0.00514193 -0.0949769 0.0018596)
(0.00559218 -0.0938962 0.00187061)
(0.00605579 -0.0933306 0.00187818)
(0.00653497 -0.0930705 0.00187855)
(0.00703253 -0.0929475 0.00187453)
(0.00755021 -0.0928131 0.00187401)
(0.0080896 -0.092486 0.00187311)
(0.00864508 -0.0917395 0.00186081)
(0.00920666 -0.0903782 0.00183583)
(0.00975166 -0.0882188 0.00181374)
(0.0102794 -0.0848978 0.0018417)
(0.0106214 -0.0793749 0.00206136)
(0.011115 -0.0694098 0.0029544)
(0.0107776 -0.0526642 0.00375827)
(0.0100671 -0.0262322 0.00614079)
(0.00850418 0.013902 0.0101479)
(0.00650155 0.0541077 0.0133444)
(0.00324794 0.119178 0.0168014)
(0.000668661 0.179644 0.0172934)
(-0.00027062 0.208215 0.0153942)
(-0.000580981 0.199136 0.0123662)
(-0.00036347 0.114243 0.00634806)
(0.000203591 -0.0628217 0.00113389)
(0.000619694 -0.131168 0.00149753)
(0.000906188 -0.156429 0.00158516)
(0.00124555 -0.161274 0.00164296)
(0.00150412 -0.158221 0.00168568)
(0.0017176 -0.150712 0.0016957)
(0.00192644 -0.140956 0.00165642)
(0.00217675 -0.130855 0.00157335)
(0.00246285 -0.121665 0.00146469)
(0.00278306 -0.114022 0.00134851)
(0.00312909 -0.108123 0.00123581)
(0.00349568 -0.103869 0.00113244)
(0.00387262 -0.10099 0.00104368)
(0.00425609 -0.0991727 0.000970235)
(0.00464675 -0.0981263 0.000909513)
(0.00504808 -0.0975959 0.000855485)
(0.00546318 -0.0973723 0.000802344)
(0.00589595 -0.097287 0.000749253)
(0.00634426 -0.097185 0.000697528)
(0.006809 -0.0968609 0.000634539)
(0.00728408 -0.096062 0.000545076)
(0.00776702 -0.094578 0.000425032)
(0.00823171 -0.0921733 0.000271253)
(0.00864176 -0.088316 8.31233e-05)
(0.00896362 -0.0816343 -0.000117415)
(0.00902728 -0.0697412 -0.000142776)
(0.00877981 -0.0501148 0.000735654)
(0.00772861 -0.017993 0.00339964)
(0.00664002 0.016463 0.00662712)
(0.00508726 0.0623158 0.0104554)
(0.00272503 0.126471 0.0140909)
(0.000957757 0.181871 0.0149863)
(0.000143088 0.204792 0.0139694)
(-6.75506e-05 0.194092 0.0115287)
(-5.48669e-05 0.110273 0.00582989)
(0.000229948 -0.0652385 0.000741215)
(0.000626982 -0.134595 0.00104772)
(0.000891984 -0.159587 0.00122879)
(0.00122774 -0.164166 0.00134945)
(0.00146361 -0.160977 0.00140728)
(0.00169538 -0.153475 0.001408)
(0.00192429 -0.143875 0.00134538)
(0.00214817 -0.134019 0.00123976)
(0.00242585 -0.125087 0.00111162)
(0.00272802 -0.117659 0.000979625)
(0.00303948 -0.11189 0.00084922)
(0.0033834 -0.107694 0.000717557)
(0.00374836 -0.104837 0.000585462)
(0.00412584 -0.103031 0.000456412)
(0.00451815 -0.101995 0.000327798)
(0.00493281 -0.101477 0.00019424)
(0.00537462 -0.101281 5.21815e-05)
(0.00584386 -0.101248 -9.44662e-05)
(0.00635231 -0.101192 -0.000245854)
(0.00689127 -0.100917 -0.000414568)
(0.00744627 -0.100133 -0.000620688)
(0.00801513 -0.0985665 -0.000870726)
(0.00858348 -0.0958982 -0.00118171)
(0.00912354 -0.0913774 -0.00158842)
(0.00951994 -0.0832953 -0.00211489)
(0.00964613 -0.0693233 -0.00254544)
(0.00931318 -0.0475004 -0.00237566)
(0.00836865 -0.0144857 -0.000621698)
(0.00710041 0.0184393 0.00208949)
(0.00504586 0.0664419 0.00621095)
(0.00279646 0.129064 0.010451)
(0.00127697 0.182668 0.0120729)
(0.000708071 0.202967 0.0115719)
(0.000233309 0.192043 0.00968159)
(1.3373e-05 0.10936 0.00483966)
(0.000243448 -0.0678067 0.000488596)
(0.000607785 -0.138286 0.000780487)
(0.000811685 -0.163342 0.00106615)
(0.00108951 -0.167847 0.00125701)
(0.00130037 -0.164513 0.0013245)
(0.00139028 -0.156829 0.00127497)
(0.00142404 -0.147059 0.0011293)
(0.00158004 -0.137086 0.000942785)
(0.00176537 -0.128127 0.000753692)
(0.00197222 -0.120741 0.000572386)
(0.00223411 -0.115052 0.000410158)
(0.00250273 -0.110947 0.000261986)
(0.00278782 -0.108194 0.000117999)
(0.00310206 -0.106508 -2.8179e-05)
(0.00344845 -0.105608 -0.00018415)
(0.003833 -0.105216 -0.000358262)
(0.00423715 -0.10524 -0.000537965)
(0.00470884 -0.105459 -0.000751481)
(0.00520366 -0.105444 -0.000981292)
(0.00570772 -0.105188 -0.00120321)
(0.00629442 -0.104436 -0.00147952)
(0.00688459 -0.102798 -0.00181513)
(0.00750503 -0.0998639 -0.00225358)
(0.00821425 -0.0944613 -0.00288208)
(0.00859413 -0.0844017 -0.003839)
(0.00908479 -0.0671915 -0.00463787)
(0.00887249 -0.0419979 -0.00489557)
(0.00800913 -0.00697405 -0.00377322)
(0.00637906 0.0272368 -0.00177844)
(0.0036025 0.0801916 0.0021444)
(0.00113479 0.138151 0.00613806)
(1.639e-05 0.184811 0.00849611)
(-0.000356352 0.202301 0.00800338)
(-0.000381434 0.189876 0.00654388)
(-0.000156844 0.107346 0.00296985)
(0.000249438 -0.0697033 5.47643e-05)
(0.000529607 -0.140439 0.000183614)
(0.000590311 -0.165027 0.000526622)
(0.000680891 -0.169239 0.000801799)
(0.00077516 -0.165669 0.000934707)
(0.00084712 -0.157909 0.000925424)
(0.000896437 -0.148222 0.000797471)
(0.000979101 -0.138463 0.000588604)
(0.0010859 -0.129763 0.00036697)
(0.00126206 -0.122604 0.000172979)
(0.00146042 -0.117086 6.53008e-06)
(0.00165385 -0.113101 -0.000144095)
(0.00184745 -0.110443 -0.00029404)
(0.00205476 -0.108863 -0.000451262)
(0.00227747 -0.108092 -0.00062075)
(0.00253087 -0.107857 -0.000808561)
(0.00282744 -0.107972 -0.00101278)
(0.00316959 -0.108203 -0.00124433)
(0.00354566 -0.108249 -0.00149768)
(0.00392146 -0.108071 -0.00178165)
(0.00437513 -0.107415 -0.00211269)
(0.00483929 -0.105865 -0.00249764)
(0.00538429 -0.102912 -0.00301478)
(0.00572201 -0.0969592 -0.0037478)
(0.00665388 -0.0852545 -0.00467973)
(0.00650031 -0.0645341 -0.00600631)
(0.00645485 -0.035805 -0.00667492)
(0.00554616 0.00154476 -0.00571624)
(0.0037284 0.0401948 -0.00347476)
(0.00141089 0.0923615 0.000201812)
(-0.000296297 0.145414 0.00352678)
(-0.000973022 0.186694 0.00510106)
(-0.000947481 0.199861 0.00523674)
(-0.000621367 0.186165 0.00430555)
(-0.000151962 0.103935 0.00181664)
(0.000286148 -0.0712741 -0.000352914)
(0.000540106 -0.142518 -0.000177502)
(0.000543746 -0.167068 0.000270863)