/*--------------------------------*- C++ -*----------------------------------*\
| =========                 |                                                 |
| \\      /  F ield         | OpenFOAM: The Open Source CFD Toolbox           |
|  \\    /   O peration     | Version:  2.0.x                                 |
|   \\  /    A nd           | Web:      www.OpenFOAM.org                      |
|    \\/     M anipulation  |                                                 |
\*---------------------------------------------------------------------------*/
FoamFile
{
    version     2.0;
    format      ascii;
    class       volScalarField;
    location    "1000";
    object      k;
}
// * * * * * * * * * * * * * * * * * * * * * * * * * * * * * * * * * * * * * //

dimensions      [0 2 -2 0 0 0 0];

internalField   nonuniform List<scalar> 
78750
(
6.28056e-05
0.000320504
0.000414784
0.000448557
0.00046703
0.000490231
0.000519473
0.000549652
0.000575715
0.000598823
0.000619255
0.000636697
0.00065104
0.00066418
0.000675348
0.000683733
0.000690725
0.000703212
0.000711852
0.000715814
0.000715501
0.000714261
0.000710523
0.000705567
0.00069939
0.000692233
0.000683848
0.000674858
0.000665193
0.000654471
0.000642266
0.000627579
0.000607762
0.000530105
0.000127313
4.55715e-05
0.000186466
0.000252365
0.000286121
0.00032967
0.000395026
0.000470244
0.000541717
0.000608091
0.000667058
0.000717115
0.000758392
0.000790083
0.000821247
0.00084386
0.000857425
0.000858304
0.000849201
0.000836137
0.000822732
0.000809098
0.000795493
0.000781933
0.000768483
0.000755193
0.000742553
0.000729587
0.000714471
0.000698602
0.000681272
0.000661907
0.00063979
0.00060626
0.000520123
0.000288398
9.99187e-06
9.74451e-05
0.000186341
0.000289043
0.000407983
0.000531352
0.000650592
0.000741787
0.000807552
0.000855501
0.000889119
0.000910674
0.000920333
0.000916859
0.000904146
0.00088844
0.000871226
0.000853065
0.000834293
0.000814703
0.000794783
0.000774309
0.000752711
0.000733493
0.000716266
0.000699501
0.000685879
0.000675667
0.000667741
0.000660755
0.000651944
0.000635095
0.000596111
0.000525421
0.000420052
1.3276e-05
0.000182502
0.000363237
0.000539997
0.000692809
0.000796815
0.000854299
0.000895939
0.000923916
0.000938569
0.00094372
0.000942283
0.000934399
0.000921816
0.000905216
0.000883157
0.000857319
0.000829291
0.000800475
0.000772258
0.000745637
0.000722172
0.000702992
0.000682302
0.000659727
0.000640374
0.000624145
0.000611554
0.000605049
0.000604542
0.000605358
0.000601288
0.000575563
0.000527334
0.000463528
3.12841e-05
0.000255191
0.00047327
0.000641605
0.000752216
0.000823898
0.000875793
0.000913699
0.000940594
0.000958204
0.00096696
0.000966498
0.000957823
0.000938351
0.000909342
0.000874706
0.000837805
0.000801689
0.000769686
0.000744801
0.00072841
0.000718184
0.000709414
0.000697423
0.000680824
0.000658996
0.000632551
0.000608521
0.000588442
0.000576975
0.000574908
0.000573376
0.000558596
0.000525216
0.000461064
6.12033e-05
0.000336158
0.000569842
0.00073374
0.00083956
0.00090829
0.000954752
0.000986039
0.00100506
0.00101293
0.00101077
0.000997897
0.000975043
0.000943473
0.000905669
0.000862695
0.000817547
0.000775735
0.000740884
0.000717271
0.000708814
0.000711508
0.000718621
0.000721109
0.000717345
0.000703573
0.000677943
0.000640124
0.000602118
0.000575167
0.000561027
0.000555741
0.00054296
0.000510745
0.000428655
7.95368e-05
0.000362909
0.000599
0.000758648
0.000857983
0.000921977
0.000966115
0.000996694
0.00101601
0.00102483
0.00102357
0.00101065
0.000986009
0.000951625
0.000908443
0.000862297
0.000815948
0.000772886
0.000734197
0.000701549
0.000678382
0.00067184
0.000677832
0.000690417
0.000700172
0.000700622
0.000690832
0.000665355
0.000627658
0.0005853
0.000559521
0.000545676
0.000529889
0.000495311
0.000405866
0.000105294
0.000415791
0.000665343
0.000824575
0.000919432
0.000979843
0.00102086
0.00104769
0.00106188
0.00106378
0.00105529
0.00103267
0.000998538
0.000954488
0.000906702
0.000857596
0.000812532
0.000772693
0.000735747
0.00070284
0.000677243
0.000665209
0.000667228
0.000679062
0.000692912
0.000700599
0.000698051
0.00068202
0.000649253
0.000605317
0.000564503
0.000540961
0.00052055
0.000485542
0.000403403
0.000130828
0.000452529
0.000700642
0.000853878
0.000943912
0.00100117
0.00103975
0.00106437
0.00107636
0.0010756
0.00106258
0.00103631
0.000999491
0.000953876
0.000903634
0.000852657
0.000806399
0.000763433
0.000724132
0.000688982
0.000659463
0.000640619
0.000636424
0.000644153
0.000661243
0.000678005
0.000686159
0.000680393
0.000657814
0.00061855
0.000576565
0.00054246
0.000516468
0.000479354
0.000402973
0.000157161
0.00049435
0.000744394
0.000893519
0.000979872
0.00103525
0.00107279
0.00109623
0.00110634
0.00110326
0.00108635
0.00105693
0.00101648
0.000967663
0.00091381
0.000859032
0.000808187
0.000762611
0.000721377
0.000683683
0.00065312
0.000632069
0.000623504
0.000626738
0.000639258
0.000654365
0.000665308
0.00066639
0.000654292
0.000626139
0.000586034
0.000548394
0.000516869
0.000477877
0.000405152
0.000178811
0.000519289
0.000764378
0.000909712
0.000994697
0.00105019
0.00108839
0.00111269
0.00112373
0.00112153
0.00110614
0.00107874
0.00104108
0.000994979
0.000942602
0.000886478
0.000829292
0.000773246
0.000722246
0.000677806
0.000640898
0.00061602
0.000605956
0.000608312
0.000619447
0.000634407
0.000647167
0.00065254
0.000646567
0.000625514
0.000592386
0.000554762
0.000519912
0.000478068
0.000407213
0.0001897
0.000531975
0.000778071
0.000924529
0.00101097
0.00106835
0.00110873
0.00113532
0.00114845
0.00114882
0.00113637
0.00111187
0.00107675
0.00103293
0.00098253
0.000927821
0.000870816
0.000811529
0.000750589
0.000690661
0.000636846
0.000595675
0.00057343
0.000571086
0.00058222
0.000600825
0.000619348
0.00063152
0.000632911
0.000621889
0.00059729
0.000561024
0.000525012
0.000481295
0.000411176
0.000191624
0.000533154
0.000779627
0.000927694
0.00101659
0.00107676
0.00112022
0.00115029
0.00116783
0.00117257
0.0011655
0.00114699
0.00111794
0.00107948
0.0010331
0.000980713
0.000924732
0.000866217
0.000805558
0.000743486
0.000682115
0.000626339
0.000583826
0.000561915
0.000556981
0.000565473
0.000583466
0.000603133
0.000615082
0.000613516
0.000595745
0.000563899
0.000529205
0.000485534
0.00041733
0.000189717
0.000533028
0.000781969
0.000932701
0.00102422
0.0010871
0.00113344
0.00116668
0.00118783
0.00119677
0.00119441
0.00118087
0.00115686
0.00112325
0.00108108
0.00103178
0.000977256
0.000919439
0.000858758
0.000795883
0.000731954
0.000669685
0.00061501
0.000576106
0.000556251
0.000551149
0.000557308
0.00057184
0.000586856
0.000596635
0.000590854
0.00056735
0.000534534
0.000492025
0.000429558
0.000187781
0.000531891
0.000782244
0.000936588
0.0010314
0.001097
0.00114594
0.00118201
0.00120635
0.00121922
0.00122061
0.00121097
0.00119089
0.00116113
0.00112251
0.00107608
0.00102327
0.000966171
0.000905724
0.000842548
0.000777579
0.000712645
0.000652339
0.000603345
0.000568277
0.000550665
0.000546804
0.000552928
0.000566064
0.000578537
0.000580169
0.000565688
0.000539062
0.000500814
0.000447044
0.000187435
0.000531079
0.000783493
0.000940663
0.001038
0.00110589
0.00115722
0.00119591
0.00122316
0.00123931
0.0012443
0.00123847
0.00122224
0.00119623
0.00116114
0.00111779
0.00106722
0.00101092
0.000950596
0.000886709
0.000820216
0.00075273
0.000687119
0.000630472
0.000587745
0.000559282
0.000546804
0.000545163
0.000552448
0.000565178
0.000570941
0.000563272
0.000542681
0.00050967
0.000462752
0.000187519
0.000532143
0.000786157
0.000946072
0.00104596
0.00111604
0.00116947
0.00121041
0.00124016
0.00125909
0.0012672
0.00126459
0.00125171
0.00122908
0.00119739
0.00115732
0.00110969
0.00105556
0.000996521
0.000933257
0.000866084
0.000796051
0.000725664
0.000661992
0.000611499
0.000574166
0.000551012
0.000543875
0.00054625
0.000557261
0.000566576
0.000564288
0.000547176
0.000518631
0.000477437
0.000189732
0.0005351
0.000789988
0.00095171
0.00105349
0.00112542
0.00118076
0.00122377
0.00125581
0.00127725
0.00128811
0.00128831
0.00127843
0.00125862
0.00122968
0.00119229
0.00114719
0.00109522
0.00103757
0.000975581
0.00090912
0.000838486
0.000765235
0.000695784
0.000637606
0.000592062
0.000561068
0.000545874
0.000546853
0.000556292
0.000566536
0.0005646
0.000552035
0.000527407
0.000490981
0.000191878
0.000537664
0.000794699
0.000959013
0.00106297
0.00113673
0.0011939
0.00123884
0.00127295
0.00129661
0.00130982
0.00131244
0.00130505
0.00128766
0.00126116
0.0012262
0.00118346
0.00113373
0.00107795
0.00101773
0.000953045
0.000883726
0.000810149
0.000736936
0.00067205
0.000618172
0.000577519
0.000553609
0.00054773
0.000555843
0.000567055
0.000567709
0.000558069
0.000536558
0.000505973
0.00019667
0.000542592
0.000800894
0.000966518
0.00107195
0.00114728
0.00120609
0.0012528
0.0012888
0.00131446
0.00132978
0.00133457
0.00132925
0.00131382
0.00128917
0.00125596
0.0012149
0.00116674
0.00111231
0.00105291
0.000989197
0.000921104
0.000849015
0.000774734
0.000705127
0.000646484
0.000599452
0.000567301
0.000553762
0.000557271
0.000568547
0.000572134
0.000565264
0.000547209
0.000523016
0.000203081
0.000549437
0.000808703
0.000975593
0.00108247
0.00115935
0.00121981
0.00126826
0.00130609
0.00133369
0.001351
0.00135781
0.00135431
0.00134063
0.00131754
0.00128566
0.00124572
0.00119847
0.00114467
0.00108535
0.00102132
0.000952016
0.000877435
0.000799911
0.00072726
0.000666417
0.000617041
0.00058108
0.000562601
0.000563133
0.000572493
0.00057785
0.000573172
0.000557968
0.000535078
0.000210597
0.000557153
0.000817048
0.000984451
0.00109216
0.00117042
0.00123252
0.00128272
0.00132235
0.00135178
0.00137107
0.00137991
0.00137826
0.00136652
0.00134513
0.00131478
0.00127616
0.00123002
0.00117707
0.00111819
0.00105434
0.000984728
0.00090898
0.000828824
0.000751443
0.000685155
0.00063194
0.000593399
0.000572312
0.000570695
0.000579126
0.000585366
0.000581916
0.000567229
0.000537715
0.000218651
0.000566054
0.000826855
0.000994584
0.00110275
0.001182
0.00124555
0.00129756
0.00133936
0.00137122
0.0013929
0.00140396
0.00140409
0.00139456
0.00137464
0.0013457
0.00130847
0.00126356
0.00121156
0.00115333
0.00108998
0.0010206
0.000944381
0.000862033
0.000779108
0.00070495
0.000645349
0.000603558
0.000581481
0.000579609
0.000587736
0.00059389
0.000590391
0.00057425
0.000537457
0.000226028
0.000574451
0.000835542
0.00100296
0.00111124
0.00119125
0.0012559
0.00130926
0.00135271
0.00138669
0.00141116
0.00142569
0.00142976
0.00142334
0.00140585
0.00137892
0.00134342
0.00129979
0.00124886
0.0011915
0.00112878
0.00106013
0.000984759
0.000902479
0.000815189
0.000732024
0.000664025
0.000615642
0.000590419
0.000588173
0.000596504
0.000602695
0.000598719
0.000580755
0.000540726
0.000233218
0.000582878
0.00084475
0.00101184
0.00112003
0.00120053
0.00126599
0.00132039
0.00136508
0.00140051
0.00142677
0.00144372
0.00145119
0.0014494
0.00143785
0.00141554
0.00138222
0.00133944
0.00128876
0.00123139
0.00116886
0.00110063
0.0010259
0.000944013
0.000855523
0.000767977
0.000693002
0.000635449
0.000602564
0.000597287
0.000605223
0.00061187
0.00060807
0.000590283
0.000554141
0.000241462
0.000592436
0.000854259
0.00102006
0.00112759
0.0012082
0.00127418
0.00132938
0.00137515
0.001412
0.00144005
0.00145923
0.00146964
0.00147149
0.00146521
0.00144882
0.00142173
0.0013829
0.0013326
0.00127378
0.00120954
0.00113993
0.00106452
0.000982277
0.000893154
0.000803705
0.000724912
0.000660393
0.000619051
0.000608285
0.000614703
0.000621479
0.000618047
0.000600971
0.000565924
0.000250465
0.000602346
0.000864171
0.00102875
0.00113556
0.00121597
0.00128207
0.00133759
0.00138389
0.00142147
0.00145052
0.00147102
0.00148339
0.00148772
0.00148401
0.00147131
0.0014494
0.00141731
0.00137384
0.00131833
0.00125204
0.00117808
0.00109852
0.00101293
0.000921424
0.00083013
0.000749679
0.000682506
0.000636724
0.000621912
0.00062677
0.000633125
0.000629418
0.00061109
0.000568568
0.000259877
0.000612455
0.000873225
0.00103581
0.00114154
0.00122159
0.00128775
0.00134362
0.00139053
0.00142899
0.00145912
0.00148097
0.00149458
0.00150007
0.00149764
0.00148682
0.0014672
0.00143819
0.00139909
0.00134953
0.00128939
0.00121748
0.00113387
0.00104334
0.000946538
0.000850407
0.000766776
0.000698236
0.00065156
0.000635409
0.000639223
0.000644476
0.000639641
0.000618676
0.000566414
0.0002686
0.000621916
0.000881917
0.00104266
0.00114714
0.00122646
0.00129222
0.00134793
0.00139491
0.00143374
0.00146478
0.00148804
0.00150384
0.00151225
0.00151309
0.00150651
0.00149072
0.00146549
0.00142989
0.0013834
0.00132586
0.00125625
0.00117335
0.00107679
0.00097358
0.00087084
0.000781971
0.000711045
0.000664642
0.000649327
0.00065305
0.000657079
0.000650274
0.000624638
0.00055922
0.000276632
0.000630407
0.000889027
0.00104781
0.00115105
0.00122965
0.001295
0.0013505
0.00139735
0.0014362
0.0014677
0.00149205
0.00150932
0.0015194
0.00152236
0.00151811
0.00150554
0.00148421
0.00145318
0.00141184
0.0013594
0.00129436
0.00121477
0.00111856
0.00100732
0.000896273
0.000799736
0.000723754
0.000676147
0.00066142
0.000665221
0.000668182
0.000659512
0.00062991
0.00055598
0.000284637
0.000638834
0.00089602
0.00105279
0.0011546
0.00123222
0.00129684
0.00135162
0.0013982
0.00143702
0.00146868
0.00149327
0.00151134
0.00152359
0.00152916
0.00152776
0.00151866
0.00150112
0.00147446
0.00143815
0.00139126
0.00133226
0.00125882
0.00116768
0.00105705
0.000937186
0.000830082
0.000743664
0.000690155
0.000674358
0.000678042
0.00067972
0.000668804
0.000634933
0.000557033
0.000293238
0.000646789
0.000901833
0.00105638
0.00115682
0.00123357
0.00129726
0.00135192
0.00139816
0.00143689
0.00146841
0.00149303
0.00151144
0.00152432
0.00153132
0.00153178
0.00152547
0.00151064
0.00148747
0.00145566
0.00141436
0.00136253
0.00129839
0.001218
0.00111758
0.00100035
0.000881568
0.000778755
0.000709848
0.000686799
0.000689052
0.000690388
0.000679104
0.000645421
0.000574668
0.000302582
0.000654416
0.000907072
0.00105938
0.00115832
0.00123383
0.00129727
0.00135147
0.00139769
0.00143613
0.00146756
0.00149247
0.00151132
0.0015241
0.00153131
0.00153265
0.00152818
0.00151629
0.00149569
0.00146637
0.00142775
0.00137956
0.00132095
0.00125054
0.0011648
0.00106338
0.000950719
0.000833618
0.000745135
0.000705751
0.00070132
0.000701306
0.000689645
0.000656163
0.000584176
0.000311705
0.00066091
0.000910746
0.0010609
0.00115847
0.0012337
0.00129621
0.00134913
0.00139386
0.00143122
0.00146196
0.00148679
0.0015064
0.00152092
0.00152986
0.00153247
0.00152815
0.00151659
0.0014971
0.00146853
0.00142999
0.00138134
0.00132292
0.00125445
0.00117527
0.00108572
0.000986143
0.00087607
0.000780002
0.000731043
0.00071967
0.000716165
0.000702369
0.000665563
0.000579025
0.000318729
0.000665592
0.00091297
0.00106108
0.00115778
0.00123185
0.00129369
0.00134616
0.00139034
0.001427
0.00145694
0.00148105
0.00150023
0.00151481
0.00152452
0.00152863
0.00152628
0.00151623
0.00149787
0.00146989
0.00143066
0.00137981
0.00131765
0.00124378
0.00115792
0.00106553
0.000969959
0.000871836
0.000790345
0.000748173
0.000735707
0.000728404
0.000710229
0.000663599
0.000547259
0.00032356
0.000668389
0.000913315
0.00106023
0.00115578
0.00122922
0.00129042
0.0013421
0.0013854
0.00142118
0.00145031
0.00147396
0.0014931
0.00150808
0.00151858
0.00152392
0.00152322
0.00151554
0.00149991
0.00147445
0.00143704
0.00138628
0.00132121
0.00124135
0.00114838
0.00104855
0.000948647
0.000858074
0.000793942
0.000761884
0.000750411
0.000740319
0.000718041
0.000663651
0.000534104
0.000326522
0.000669602
0.000912777
0.00105808
0.00115288
0.00122588
0.00128672
0.00133797
0.00138063
0.00141553
0.0014437
0.00146654
0.00148529
0.00150044
0.00151173
0.00151841
0.00151954
0.00151433
0.00150147
0.00148036
0.00144773
0.001402
0.00134181
0.00126533
0.00117262
0.00106733
0.000955928
0.000858635
0.000796499
0.000771378
0.000762538
0.000750528
0.000724426
0.000664583
0.000534952
0.000329342
0.000669747
0.000910882
0.00105507
0.00114932
0.00122204
0.00128261
0.00133342
0.00137541
0.00140945
0.0014366
0.00145855
0.00147674
0.00149188
0.00150377
0.00151167
0.00151455
0.00151148
0.00150111
0.00148245
0.00145455
0.00141595
0.00136455
0.00129832
0.00121651
0.00112041
0.00100765
0.000890267
0.000809975
0.000780217
0.000772294
0.000759988
0.000732829
0.000672948
0.000556432
0.000332646
0.000669782
0.000908639
0.00105157
0.0011453
0.00121782
0.00127821
0.00132868
0.00137012
0.00140327
0.00142921
0.00144984
0.0014669
0.00148137
0.00149327
0.00150189
0.00150621
0.00150518
0.00149766
0.00148152
0.00145508
0.0014182
0.00137041
0.00131104
0.0012406
0.00115864
0.00105946
0.0009457
0.000845612
0.00079684
0.000782837
0.000769715
0.000742461
0.000682876
0.000561085
0.000334716
0.000668586
0.000905056
0.00104705
0.00114053
0.00121303
0.00127347
0.00132398
0.00136519
0.00139769
0.00142252
0.00144177
0.00145737
0.00147067
0.00148195
0.00149067
0.00149582
0.00149627
0.00149089
0.00147684
0.00145258
0.001417
0.00136914
0.00130909
0.00123846
0.00115938
0.00106852
0.000968652
0.000876761
0.000820329
0.000797601
0.00077998
0.000750286
0.000686608
0.000553244
0.000335698
0.000665796
0.000900373
0.00104176
0.00113515
0.00120786
0.00126859
0.00131919
0.00136022
0.00139221
0.00141622
0.00143419
0.00144803
0.00145938
0.00146923
0.00147745
0.00148317
0.00148535
0.00148246
0.00147192
0.00145185
0.00142053
0.00137736
0.00131957
0.0012482
0.0011654
0.00107124
0.000971507
0.000885355
0.000834846
0.000811474
0.00079103
0.000758404
0.000690355
0.000552741
0.00033758
0.000662929
0.000895252
0.00103598
0.00112952
0.00120267
0.00126384
0.00131477
0.00135588
0.00138761
0.00141081
0.00142745
0.00143957
0.00144885
0.00145642
0.00146287
0.00146771
0.00147007
0.00146842
0.00146059
0.00144526
0.00142115
0.00138664
0.00134095
0.00128382
0.00121149
0.00111787
0.00100998
0.000912731
0.000850979
0.000823916
0.000801543
0.00076736
0.000698993
0.000567851
0.000340242
0.000659445
0.000889269
0.00102956
0.00112345
0.00119723
0.00125906
0.0013105
0.00135185
0.0013834
0.00140577
0.00142075
0.00143071
0.00143758
0.00144266
0.00144655
0.00144926
0.00145001
0.00144713
0.00143852
0.00142336
0.00140133
0.00137222
0.00133607
0.00129208
0.00123552
0.00115884
0.0010598
0.000956996
0.000880985
0.000841078
0.000814147
0.000778404
0.000708385
0.000570362
0.0003407
0.000654524
0.00088227
0.00102252
0.00111703
0.00119167
0.00125447
0.00130684
0.00134888
0.00138068
0.00140272
0.00141691
0.00142527
0.00142987
0.00143176
0.00143227
0.00143198
0.00143024
0.00142482
0.00141371
0.00139575
0.00137104
0.00134055
0.00130594
0.00126852
0.00122306
0.00115916
0.00107634
0.000985826
0.000909356
0.000861387
0.000827885
0.000787201
0.000709558
0.000553433
0.000339406
0.000647688
0.000873721
0.00101423
0.00110962
0.00118539
0.00124944
0.00130311
0.0013464
0.00137925
0.00140211
0.00141599
0.00142288
0.00142453
0.00142355
0.00142136
0.00141784
0.00141352
0.00140617
0.00139308
0.00137261
0.00134433
0.0013091
0.00126931
0.00122822
0.00118474
0.00113499
0.0010714
0.000999101
0.000931027
0.000880103
0.000841067
0.000795129
0.000709118
0.000536708
0.000336204
0.000639803
0.000864306
0.0010054
0.00110181
0.00117885
0.00124438
0.00129969
0.00134467
0.00137902
0.00140249
0.00141664
0.00142304
0.00142397
0.00142125
0.00141611
0.0014095
0.00140225
0.00139325
0.00137931
0.00135872
0.00133041
0.00129436
0.00125238
0.00120729
0.00115875
0.00110699
0.00105235
0.000997707
0.0009422
0.00089489
0.000854264
0.000804078
0.000710384
0.000537362
0.000331714
0.000630561
0.00085379
0.00099568
0.00109313
0.00117157
0.00123878
0.00129601
0.00134309
0.00137965
0.00140559
0.00142156
0.00142897
0.00142937
0.00142456
0.00141624
0.00140675
0.0013966
0.00138397
0.00136789
0.00134724
0.00132029
0.00128706
0.00124879
0.00120644
0.00115841
0.00110529
0.00104995
0.000997427
0.00094837
0.000905371
0.000865116
0.000813937
0.000719812
0.00055034
0.000326141
0.000620758
0.000843359
0.000986181
0.00108435
0.00116398
0.0012329
0.00129219
0.00134166
0.00138084
0.0014094
0.00142789
0.00143735
0.00143919
0.00143481
0.00142549
0.00141268
0.00139789
0.00138104
0.0013609
0.00133582
0.00130602
0.00127245
0.00123694
0.00119992
0.00115692
0.00110557
0.00105252
0.00100454
0.000959077
0.000917392
0.000876853
0.00082389
0.000725907
0.000550297
0.000318883
0.000610649
0.000833046
0.000976773
0.00107551
0.00115585
0.0012263
0.00128768
0.00133961
0.00138162
0.00141322
0.00143485
0.0014475
0.00145217
0.0014499
0.00144172
0.00142879
0.00141229
0.00139171
0.00136583
0.00133414
0.00129766
0.00125745
0.00121639
0.00117564
0.00113507
0.00109325
0.00104812
0.00100421
0.000963889
0.000926163
0.000886441
0.000832941
0.000732226
0.000545882
0.00031089
0.000601109
0.000823464
0.00096808
0.0010673
0.00114782
0.00121922
0.00128264
0.00133705
0.00138206
0.00141705
0.00144228
0.00145868
0.00146727
0.00146878
0.00146407
0.00145376
0.00143903
0.0014194
0.0013931
0.00135898
0.00131744
0.00127106
0.00122304
0.00117441
0.00112467
0.0010767
0.00103459
0.00100008
0.000967586
0.000933316
0.000894231
0.000839534
0.000734623
0.000546869
0.000304341
0.000593724
0.000815696
0.000960698
0.00105999
0.00114032
0.00121216
0.00127682
0.00133348
0.00138097
0.00141909
0.00144803
0.0014682
0.0014811
0.00148727
0.00148715
0.00148143
0.0014706
0.00145457
0.00143212
0.00140194
0.00136363
0.00131913
0.00126964
0.00121156
0.00114663
0.00108431
0.00103605
0.00100098
0.000974109
0.000944484
0.000905997
0.000851156
0.000748269
0.000574749
0.000302849
0.00058931
0.000810598
0.00095541
0.00105439
0.00113422
0.00120581
0.00127093
0.00132907
0.0013786
0.00141922
0.0014504
0.00147407
0.00149055
0.00150121
0.00150608
0.00150532
0.00149947
0.00148805
0.00146997
0.00144517
0.00141386
0.00137795
0.00133714
0.00128543
0.0012188
0.001141
0.00106494
0.00101217
0.000977997
0.000949499
0.000914344
0.00086275
0.000768336
0.000616777
0.000303221
0.000586522
0.000806539
0.000950983
0.00104945
0.00112868
0.00119952
0.00126455
0.00132328
0.00137441
0.00141667
0.00145039
0.00147597
0.00149537
0.00150977
0.00151916
0.00152248
0.00152151
0.00151482
0.00150088
0.00147976
0.0014532
0.00142422
0.00139285
0.00135281
0.00129714
0.00122276
0.00113646
0.00105853
0.00100421
0.00096581
0.000928195
0.000878359
0.000786747
0.00062693
0.00030624
0.000586607
0.000805072
0.000948004
0.0010452
0.00112334
0.00119312
0.00125755
0.00131617
0.001368
0.00141138
0.00144624
0.00147401
0.00149622
0.0015129
0.00152551
0.00153511
0.00153938
0.00153708
0.00152508
0.00150371
0.00147626
0.00144762
0.00141905
0.00138592
0.00134055
0.0012772
0.00119681
0.00111098
0.00103949
0.000986834
0.000942429
0.000888538
0.000790998
0.000612452
0.000307135
0.000586665
0.000803897
0.000945043
0.00104068
0.00111747
0.00118585
0.00124921
0.00130707
0.00135867
0.00140277
0.00143824
0.00146635
0.00148889
0.00150771
0.00152406
0.00153844
0.00154964
0.00155249
0.00154425
0.00152212
0.00149077
0.00145702
0.00142294
0.00138753
0.00134568
0.00129207
0.00122531
0.00114801
0.00107429
0.00101334
0.000960698
0.000897484
0.000785911
0.00057436
0.000307435
0.000588206
0.000803628
0.000942308
0.00103611
0.00111138
0.00117813
0.00124006
0.00129669
0.00134749
0.00139174
0.00142788
0.00145686
0.00148043
0.00150047
0.00151891
0.0015373
0.00155569
0.00156898
0.00156882
0.00155225
0.00152019
0.00148079
0.00143639
0.00139024
0.00134552
0.00129442
0.00123698
0.00116875
0.00109788
0.0010336
0.00097623
0.000907358
0.000786551
0.000566277
0.000308573
0.000590706
0.000803969
0.000939873
0.00103177
0.00110549
0.00117049
0.00123066
0.00128553
0.00133477
0.00137799
0.00141429
0.00144334
0.00146704
0.00148762
0.00150768
0.00153002
0.0015566
0.00158291
0.00159918
0.00159721
0.00157766
0.00154018
0.00148716
0.00142316
0.00135664
0.00129895
0.00124482
0.00118811
0.00112233
0.00105574
0.000993566
0.000918573
0.000787221
0.000575216
0.000315412
0.000596253
0.000805698
0.000938095
0.00102788
0.00110003
0.00116326
0.0012215
0.00127434
0.00132164
0.00136336
0.00139918
0.00142805
0.00145154
0.0014719
0.00149217
0.00151651
0.0015492
0.0015883
0.00162495
0.00164749
0.00164993
0.001631
0.00158508
0.00151817
0.00143724
0.00135342
0.00128062
0.00121771
0.00115315
0.00108404
0.00101605
0.000939131
0.000817487
0.000642037
0.000329942
0.000604861
0.000808743
0.000937037
0.00102451
0.00109501
0.00115645
0.00121237
0.00126267
0.00130725
0.00134629
0.0013799
0.00140779
0.00143
0.0014488
0.00146752
0.00149141
0.00152684
0.00157528
0.00163068
0.00167923
0.00171004
0.0017159
0.00169421
0.00164096
0.00156286
0.00146743
0.00136614
0.0012729
0.00119084
0.00111332
0.00104169
0.000963262
0.000846826
0.000670201
0.000346499
0.000612206
0.000809857
0.00093482
0.00102027
0.00108926
0.00114906
0.00120257
0.00125011
0.00129163
0.00132753
0.00135832
0.00138432
0.00140467
0.00142121
0.00143686
0.00145716
0.00148986
0.00154026
0.00160581
0.00167316
0.00172741
0.00175919
0.00176071
0.00173084
0.00166873
0.0015779
0.00146602
0.00135008
0.00124534
0.00115447
0.00107397
0.000985644
0.000854526
0.000661912
0.000356268
0.000615508
0.000810183
0.000931684
0.00101513
0.00108279
0.00114114
0.00119251
0.00123751
0.00127602
0.00130861
0.0013362
0.00135962
0.00137894
0.00139408
0.00140706
0.0014224
0.00144755
0.0014916
0.00155698
0.00163412
0.00170693
0.00175387
0.00176507
0.00174561
0.00169479
0.00161249
0.00150446
0.0013874
0.00127799
0.00118251
0.00109596
0.000995314
0.000843573
0.000578223
0.000357408
0.000615716
0.00080681
0.000925971
0.00100806
0.00107482
0.00113219
0.00118183
0.00122455
0.00126016
0.00128937
0.00131357
0.00133429
0.00135271
0.00136784
0.00138027
0.00139172
0.00140624
0.0014344
0.00148583
0.00156149
0.001644
0.00170941
0.00174079
0.0017359
0.00169219
0.00161272
0.0015116
0.00139942
0.0012928
0.00119817
0.00110633
0.000991173
0.000804609
0.000508712
0.000352776
0.000611092
0.000801853
0.000919589
0.0010008
0.00106712
0.00112402
0.00117252
0.0012135
0.00124664
0.00127266
0.00129329
0.00131077
0.00132766
0.00134464
0.00136053
0.00137363
0.00138184
0.00139345
0.00142212
0.00147829
0.00155162
0.00161953
0.00166364
0.00167524
0.00165271
0.00159635
0.00150974
0.00140867
0.00130913
0.00121421
0.00111673
0.000991137
0.000783568
0.000483089
0.000343612
0.000606181
0.000796209
0.000912426
0.000992924
0.00105917
0.00111616
0.00116431
0.00120396
0.00123504
0.00125802
0.00127469
0.00128789
0.00130164
0.00131903
0.00133961
0.0013597
0.00137239
0.00137633
0.00138338
0.00141042
0.00146144
0.00152599
0.00158446
0.0016182
0.00161749
0.00157935
0.00150928
0.00142261
0.00132687
0.00123017
0.00112902
0.000996137
0.000783737
0.000483355
0.000334077
0.000601323
0.000790331
0.000905436
0.000985712
0.00105237
0.00111
0.00115854
0.0011977
0.00122763
0.00124828
0.00126118
0.00126946
0.00127808
0.00129285
0.00131783
0.00134934
0.00137666
0.00139218
0.00139644
0.00140398
0.00142138
0.0014504
0.00148871
0.00152975
0.00155361
0.00154659
0.00150318
0.00142797
0.00133715
0.00124198
0.00114021
0.00100649
0.000790948
0.000504725
0.000331943
0.000599279
0.000785421
0.00089889
0.000978946
0.00104618
0.00110473
0.00115409
0.00119331
0.00122267
0.00124132
0.0012503
0.0012532
0.00125438
0.00126166
0.00128419
0.00132463
0.00137327
0.00141287
0.00143651
0.00144478
0.00144532
0.00145039
0.00146484
0.00148028
0.00149281
0.00149389
0.00147426
0.00142607
0.00135111
0.00126327
0.0011653
0.00103655
0.000827888
0.00056432
0.000334887
0.000598706
0.000780937
0.000892838
0.000973008
0.00104121
0.00110116
0.00115208
0.00119234
0.00122179
0.00123972
0.00124622
0.00124218
0.00123449
0.00123004
0.00124148
0.00128073
0.00134426
0.00141346
0.00146838
0.00149971
0.00150736
0.00149904
0.00148585
0.00148365
0.0014902
0.00148752
0.00146893
0.00142773
0.00136266
0.00127932
0.00118485
0.00106524
0.000875209
0.000628409
0.000345111
0.000598908
0.000776349
0.000886607
0.000966902
0.00103608
0.00109755
0.00115056
0.00119341
0.00122441
0.00124205
0.00124593
0.00123752
0.0012206
0.00120242
0.00119861
0.00122293
0.00128944
0.00137986
0.00146711
0.00153062
0.0015653
0.00157047
0.00155458
0.00152952
0.00150558
0.00149002
0.00147171
0.00142978
0.00136825
0.00129056
0.00120402
0.00109387
0.000913556
0.000649351
0.000356468
0.000597564
0.000770263
0.00087957
0.000960413
0.00103079
0.0010939
0.00114901
0.0011944
0.00122775
0.00124714
0.00125105
0.00124008
0.0012174
0.00118982
0.00116348
0.00116114
0.00121152
0.00130755
0.00142001
0.00151574
0.00157471
0.00160444
0.00160741
0.00159026
0.0015587
0.00152298
0.00148481
0.00144019
0.00137916
0.00130476
0.00121982
0.00110666
0.000917906
0.000642311
0.000358173
0.000589913
0.000761731
0.0008713
0.000952899
0.00102455
0.00108965
0.00114752
0.00119622
0.00123407
0.00125728
0.00126337
0.00125253
0.00122627
0.00118965
0.00115256
0.00113108
0.0011395
0.00120988
0.00132619
0.00145148
0.00154904
0.00159925
0.00160905
0.00159956
0.00157314
0.00153501
0.00149003
0.00143915
0.00137696
0.00130428
0.00122001
0.00110543
0.000906172
0.000569336
0.000352355
0.000577866
0.000750363
0.000860689
0.000943123
0.001016
0.00108307
0.0011439
0.00119666
0.00123986
0.00126976
0.00128264
0.00127814
0.00125557
0.00121834
0.00117357
0.00113606
0.00112498
0.00115118
0.00122674
0.00133747
0.00144643
0.00152649
0.00157517
0.00158546
0.00156844
0.00153186
0.00148447
0.00142938
0.00136801
0.00129855
0.00121498
0.00108955
0.000862385
0.000499702
0.000335857
0.000562634
0.000737902
0.000849797
0.000933128
0.00100706
0.00107594
0.0011396
0.0011964
0.00124447
0.00128132
0.00130438
0.0013093
0.00129538
0.00126322
0.00121663
0.0011668
0.001131
0.00112926
0.00116947
0.0012507
0.00134221
0.00141909
0.00147513
0.00150724
0.00151448
0.00149941
0.00146548
0.0014167
0.00135769
0.00128845
0.00120176
0.00107037
0.000834057
0.000466962
0.000313728
0.00054616
0.000724293
0.000837749
0.000921946
0.000996865
0.00106735
0.0011331
0.00119286
0.00124527
0.00129017
0.00132386
0.00134344
0.00134512
0.00132684
0.00128697
0.00122952
0.00117053
0.00113504
0.00113661
0.00118572
0.00126106
0.00133548
0.00139668
0.00143922
0.00145986
0.00145953
0.00143788
0.001398
0.00134416
0.00127851
0.00119699
0.00107139
0.00083555
0.000466563
0.000290643
0.000530452
0.00071137
0.00082657
0.000911605
0.000987345
0.00105891
0.00112624
0.00118838
0.00124444
0.00129382
0.00133632
0.00136856
0.00138869
0.00139199
0.00137324
0.00132902
0.00126178
0.00118846
0.00114094
0.00113893