/*--------------------------------*- C++ -*----------------------------------*\
| =========                 |                                                 |
| \\      /  F ield         | OpenFOAM: The Open Source CFD Toolbox           |
|  \\    /   O peration     | Version:  2.3.x                                 |
|   \\  /    A nd           | Web:      www.OpenFOAM.org                      |
|    \\/     M anipulation  |                                                 |
\*---------------------------------------------------------------------------*/
FoamFile
{
    version     2.0;
    format      ascii;
    class       volScalarField;
    location    "1000";
    object      k;
}
// * * * * * * * * * * * * * * * * * * * * * * * * * * * * * * * * * * * * * //

dimensions      [0 2 -2 0 0 0 0];

internalField   nonuniform List<scalar> 
78750
(
8.94859e-05
0.000250099
0.000318902
0.000351248
0.000374407
0.000402632
0.000431216
0.000456185
0.000478253
0.000497244
0.000513318
0.000526822
0.000537898
0.000547625
0.000553453
0.000568572
0.000582844
0.00059221
0.000596994
0.000596937
0.000596424
0.000593217
0.000588763
0.000583164
0.000576592
0.000568994
0.000560268
0.000550157
0.00053896
0.000526307
0.000511447
0.000493022
0.000469365
0.000411548
0.000162624
4.93155e-05
0.000142592
0.000198252
0.000243219
0.000305936
0.00037577
0.000446471
0.000512932
0.000570048
0.000617971
0.000657197
0.000688973
0.000712582
0.000730054
0.00074235
0.000741312
0.000731824
0.000719763
0.000707575
0.000694834
0.000681832
0.000668822
0.000655797
0.000642923
0.000630331
0.000618621
0.000607611
0.000594885
0.00058145
0.000566699
0.000549074
0.00052746
0.000493436
0.000425912
0.00029186
2.13467e-05
0.000122836
0.000229725
0.000343845
0.000460166
0.000557366
0.000633329
0.000688679
0.000727864
0.000754203
0.000770036
0.000776902
0.000776989
0.000773548
0.000763262
0.00074954
0.000733928
0.000717017
0.000698071
0.000677153
0.000654632
0.000632377
0.000609649
0.000587452
0.000566966
0.000548094
0.000532939
0.000524568
0.000521736
0.000522533
0.000522391
0.000516573
0.000487203
0.000436893
0.000376797
2.88464e-05
0.000207356
0.000375959
0.000515885
0.000611611
0.000675751
0.000715624
0.000742124
0.000760438
0.000773099
0.000781276
0.000785437
0.000785331
0.000781251
0.000772283
0.000758605
0.000740349
0.000718815
0.00069509
0.000669081
0.000640409
0.000607609
0.00057409
0.00054123
0.000509427
0.00048256
0.000463967
0.000453788
0.000452768
0.000457529
0.000468752
0.000475767
0.000466421
0.000435297
0.000385524
5.11229e-05
0.000242136
0.000410172
0.000537425
0.000626666
0.000688459
0.000734306
0.000769794
0.000797036
0.000816734
0.000829201
0.000834648
0.000833601
0.000825862
0.000812235
0.000793276
0.000769684
0.000742354
0.000711513
0.000677824
0.000642091
0.000605345
0.000567802
0.000529605
0.000491234
0.000456919
0.000431284
0.000414761
0.000408923
0.000412735
0.000427552
0.000442892
0.000443148
0.000422501
0.000368919
7.11762e-05
0.000290882
0.00046886
0.000597289
0.000682603
0.000739471
0.000779163
0.000807788
0.000828217
0.000841908
0.000849639
0.000851803
0.000848964
0.000840767
0.000827582
0.000809679
0.000787569
0.000762013
0.000733074
0.00070101
0.000666044
0.000628393
0.000588318
0.000546126
0.000502659
0.000462555
0.000431036
0.000407373
0.000392687
0.000390674
0.000399399
0.000416147
0.000421385
0.000405209
0.000353538
8.1119e-05
0.00029773
0.000474362
0.000602527
0.000688355
0.000747338
0.000790958
0.000824679
0.00085071
0.000869904
0.000882575
0.000888819
0.000888693
0.000882913
0.000870717
0.000852849
0.000829744
0.000802308
0.000771293
0.000736953
0.000699638
0.000659849
0.000617915
0.000573964
0.000528131
0.000483909
0.000445841
0.000414738
0.000393124
0.000382184
0.00038432
0.000398153
0.000405253
0.000393168
0.000351486
9.18109e-05
0.000321037
0.000506843
0.00063817
0.000724271
0.000782468
0.000824558
0.000856079
0.000879483
0.000895968
0.000906183
0.000910489
0.000909336
0.000902672
0.000890515
0.0008729
0.000850202
0.00082323
0.000792673
0.000759236
0.000723083
0.000684194
0.000642741
0.00059911
0.000553474
0.000509088
0.000469707
0.000434284
0.000403469
0.000383473
0.000378878
0.00038533
0.000392181
0.000384246
0.000359188
0.000102804
0.000336299
0.000524905
0.000657312
0.000743562
0.000802523
0.000846087
0.000879503
0.00090505
0.000923795
0.000936223
0.000942487
0.000942422
0.000937018
0.000924703
0.000906775
0.000883743
0.000856264
0.000824875
0.000789798
0.000751388
0.000709989
0.000665905
0.000619566
0.000571573
0.000526033
0.000486583
0.000451298
0.000419543
0.000394316
0.000380541
0.000381387
0.000386402
0.000384227
0.000376634
0.000112656
0.000357388
0.000554954
0.000690024
0.000775424
0.000832857
0.000874908
0.000906861
0.000931039
0.000948541
0.000959912
0.000965519
0.000965434
0.00096049
0.000949579
0.000933685
0.000912844
0.000887109
0.000856527
0.000820961
0.000781149
0.000737544
0.000690564
0.000640719
0.000588753
0.000539461
0.000497191
0.000460158
0.000427641
0.000401383
0.000384983
0.00038237
0.000386675
0.000386638
0.000388348
0.000124084
0.000379209
0.000582498
0.000717763
0.000801735
0.000858265
0.00089998
0.000931951
0.00095627
0.000973935
0.000985628
0.000991746
0.0009926
0.000989326
0.000981017
0.000968044
0.000950046
0.000926875
0.000898182
0.000863468
0.000822773
0.00077694
0.000726994
0.000673424
0.000617088
0.000562999
0.00051583
0.000473967
0.000437426
0.000408472
0.000390187
0.000385859
0.000388312
0.000390532
0.000398401
0.000134889
0.000401092
0.000612347
0.000748503
0.00083111
0.000886097
0.000926389
0.00095702
0.000979839
0.000995983
0.00100634
0.00101171
0.00101301
0.0010109
0.00100456
0.000994203
0.000979344
0.000959643
0.000934211
0.000902344
0.000863667
0.00081789
0.000765333
0.000707866
0.0006476
0.000589941
0.000539284
0.000493376
0.000452159
0.00041859
0.000396687
0.000390649
0.000393146
0.00039821
0.000415369
0.000153096
0.000433425
0.000649556
0.000782047
0.000860558
0.000912704
0.000951101
0.000979961
0.00100104
0.0010156
0.00102471
0.00102962
0.00103113
0.00102985
0.00102534
0.00101741
0.00100541
0.000988756
0.000966096
0.000936806
0.000900599
0.000857044
0.000805644
0.000746122
0.000679936
0.000616679
0.000561911
0.00051297
0.000469072
0.000432259
0.0004068
0.000398793
0.00040137
0.00040814
0.000425068
0.000170838
0.000460618
0.000679377
0.000809339
0.000884848
0.000934565
0.00097085
0.000997442
0.00101617
0.00102833
0.00103552
0.00103974
0.00104154
0.001042
0.00104058
0.00103587
0.00102731
0.00101357
0.000993359
0.00096614
0.000931727
0.000889685
0.000839401
0.000780094
0.000711818
0.000641265
0.000578149
0.000522814
0.00047591
0.000439401
0.000415792
0.000408392
0.000410163
0.000414883
0.000426338
0.000193137
0.000492327
0.000710388
0.000835451
0.000906696
0.000953424
0.000987003
0.00101101
0.00102696
0.00103627
0.00104107
0.00104328
0.00104792
0.00105191
0.00105413
0.00105358
0.00104903
0.00103885
0.00102181
0.000997532
0.000966069
0.000927204
0.00088046
0.000824997
0.000760079
0.000689699
0.000618956
0.000549369
0.000490661
0.000447763
0.000423439
0.000417118
0.00041913
0.000423855
0.000436655
0.000209063
0.000512041
0.000728795
0.000851651
0.000920884
0.000965854
0.000997491
0.0010191
0.00103231
0.00103896
0.00104143
0.00104465
0.00104825
0.00105373
0.00106027
0.00106445
0.00106384
0.0010574
0.00104382
0.00102256
0.000993804
0.000957635
0.000914044
0.000862789
0.000803498
0.000738931
0.000671275
0.000598804
0.000526994
0.000470152
0.000436236
0.000426588
0.000428528
0.000433503
0.000443285
0.000218993
0.000526137
0.000743193
0.000865199
0.000933784
0.000977707
0.00100777
0.0010273
0.00103801
0.00104189
0.00104226
0.00104354
0.00104728
0.00105365
0.00106079
0.00106812
0.00107374
0.00107264
0.00106392
0.00104679
0.00102122
0.000987132
0.000944432
0.000893163
0.000834363
0.000770175
0.000699845
0.000623303
0.000548399
0.000488963
0.000453205
0.000441136
0.000441076
0.000442248
0.000437996
0.000224423
0.000534657
0.000752734
0.000875398
0.000944802
0.000989084
0.0010182
0.0010357
0.00104322
0.00104341
0.00104016
0.00103784
0.00103936
0.00104626
0.00105685
0.00106791
0.00107591
0.00108041
0.00107795
0.00106657
0.00104679
0.00101822
0.000980458
0.000933264
0.000877009
0.000811734
0.000734577
0.000646186
0.000558163
0.000493533
0.000462402
0.000452338
0.000449715
0.000445667
0.000436856
0.000231368
0.000543904
0.000763175
0.000886601
0.00095719
0.00100277
0.00103247
0.00104849
0.00105247
0.0010479
0.00103876
0.00103145
0.00102999
0.00103505
0.00104633
0.00106078
0.00107356
0.00108131
0.00108336
0.00107928
0.00106625
0.00104494
0.0010153
0.000977241
0.000930776
0.000874779
0.000804488
0.000716887
0.000617093
0.000526519
0.000476039
0.00046229
0.000459658
0.000456071
0.00045457
0.000237336
0.000550256
0.000770123
0.000894739
0.000966934
0.00101441
0.00104611
0.00106384
0.00106794
0.00106019
0.00104554
0.00102989
0.0010201
0.00102064
0.00103047
0.00104619
0.00106291
0.00107618
0.00108324
0.00108257
0.00107439
0.00105775
0.00103324
0.0010013
0.000962374
0.000915573
0.000856624
0.000781102
0.000687634
0.000586014
0.000509771
0.000477889
0.000470966
0.000467831
0.000467043
0.000242682
0.000556236
0.000776637
0.000902462
0.000976314
0.00102562
0.0010592
0.00107884
0.00108465
0.00107774
0.00106003
0.00103677
0.00101682
0.00100607
0.00100931
0.00102385
0.00104285
0.00106096
0.00107395
0.00107932
0.00107589
0.00106328
0.00104121
0.00101035
0.000971456
0.000924079
0.000865318
0.00079305
0.000707771
0.000617518
0.000543165
0.000502984
0.000488303
0.000478416
0.000459734
0.000245258
0.000558305
0.000779458
0.000907094
0.000983159
0.00103486
0.00107094
0.00109317
0.00110152
0.00109719
0.00108123
0.0010559
0.00102613
0.00100243
0.000991383
0.000997752
0.00101548
0.00103674
0.00105593
0.00106897
0.00107345
0.00106823
0.00105267
0.00102664
0.000989927
0.000940319
0.000875695
0.00079688
0.000711861
0.000622893
0.000557637
0.000520079
0.000501341
0.000483755
0.000457983
0.000248183
0.000560764
0.000782349
0.000911724
0.000989883
0.00104385
0.00108241
0.00110736
0.00111854
0.00111703
0.00110364
0.00108006
0.00104868
0.00101404
0.000986553
0.00097494
0.000982549
0.00100249
0.00102576
0.00104641
0.00106051
0.00106591
0.00106198
0.001048
0.0010229
0.000983333
0.00092532
0.000846234
0.000747004
0.000649798
0.000575489
0.00053427
0.000514348
0.000496625
0.000480891
0.000251221
0.000561614
0.000783109
0.000914476
0.000994935
0.0010514
0.00109268
0.00112058
0.00113528
0.0011369
0.00112657
0.00110551
0.00107546
0.00103879
0.000999933
0.000968804
0.000956235
0.000964067
0.000984653
0.00100847
0.00102917
0.00104295
0.00104846
0.00104538
0.00103198
0.00100634
0.000964406
0.000901177
0.000812349
0.000707111
0.000614169
0.000557494
0.000531651
0.000514102
0.000501048
0.000253733
0.000561727
0.000783101
0.00091611
0.000999214
0.00105831
0.00110246
0.00113356
0.00115176
0.00115678
0.00114999
0.00113212
0.00110449
0.00106876
0.0010273
0.000984514
0.000949659
0.000933482
0.000938517
0.000960433
0.00098456
0.00100442
0.00101685
0.00102094
0.00101596
0.000998019
0.0009638
0.000909533
0.000833911
0.000740781
0.0006498
0.000586482
0.000552873
0.000527783
0.000496209
0.000254762
0.000561696
0.000783138
0.000916798
0.00100194
0.00106367
0.00111082
0.00114532
0.00116737
0.00117634
0.00117363
0.00115965
0.00113547
0.00110237
0.00106196
0.00101664
0.000970901
0.000931805
0.000911002
0.000912335
0.000933381
0.000957572
0.000977394
0.000989448
0.000991412
0.000980588
0.000952164
0.000904541
0.000834547
0.000751695
0.000670352
0.000608928
0.000571261
0.000538453
0.000494776
0.000254346
0.000558438
0.000780517
0.000916622
0.00100444
0.0010688
0.00111883
0.00115658
0.00118229
0.00119561
0.00119682
0.00118678
0.00116631
0.0011364
0.00109826
0.00105351
0.00100477
0.000956051
0.000913058
0.000886941
0.000885503
0.000904576
0.000929818
0.000951525
0.000965196
0.000965686
0.000949048
0.000908524
0.000847101
0.000770822
0.000692872
0.000630571
0.000589579
0.000552169
0.00050584
0.000251961
0.00055464
0.000777253
0.000915896
0.00100587
0.00107285
0.00112591
0.00116707
0.0011966
0.00121432
0.0012197
0.00121396
0.00119756
0.00117132
0.00113618
0.00109328
0.00104433
0.000992276
0.000939949
0.000893213
0.000862311
0.000855059
0.000872439
0.00089927
0.000923433
0.000937206
0.000934033
0.000907408
0.000856227
0.000788535
0.00071464
0.000653019
0.000610262
0.000569503
0.000515405
0.00024908
0.000549973
0.000773288
0.00091432
0.00100712
0.00107694
0.00113305
0.00117755
0.00121072
0.00123242
0.00124202
0.00124051
0.00122818
0.00120582
0.00117422
0.00113426
0.00108708
0.0010345
0.000978719
0.000922311
0.000871202
0.000835141
0.000823349
0.000838751
0.000867756
0.000892819
0.000903126
0.00089239
0.000855317
0.000798554
0.000731963
0.000672499
0.000627421
0.000580703
0.000517064
0.000247324
0.000546308
0.000770136
0.000913665
0.00100945
0.00108224
0.00114136
0.001189
0.00122556
0.00125089
0.00126474
0.00126697
0.00125831
0.00123939
0.00121093
0.0011737
0.00112861
0.00107695
0.0010209
0.000961596
0.000902009
0.000848421
0.000812353
0.000803083
0.000816568
0.000845379
0.00086708
0.00086937
0.000849168
0.000804655
0.000747008
0.000691391
0.000646832
0.000598329
0.000536742
0.000246868
0.000543066
0.000766771
0.000913151
0.00101243
0.00108846
0.00115071
0.00120153
0.0012414
0.00127018
0.00128756
0.00129331
0.00128795
0.00127207
0.0012463
0.00121133
0.00116793
0.0011171
0.00106041
0.000999396
0.000935879
0.000873966
0.000822853
0.000794234
0.000791061
0.000807638
0.000836247
0.000851882
0.000845212
0.000812468
0.00076131
0.00070866
0.000665116
0.000617446
0.000556326
0.000247447
0.000540961
0.000765341
0.000914858
0.00101702
0.001096
0.00116132
0.00121533
0.00125847
0.0012906
0.00131136
0.0013204
0.00131798
0.00130469
0.00128111
0.00124789
0.00120574
0.00115544
0.00109808
0.00103517
0.000967856
0.000899665
0.000837702
0.000793936
0.000776121
0.000781061
0.00080456
0.000832011
0.000840428
0.000819139
0.000776929
0.000728465
0.000684279
0.000632089
0.000554615
0.000250349
0.000540814
0.00076546
0.000917174
0.00102236
0.00110488
0.00117363
0.00123091
0.00127722
0.00131257
0.00133655
0.00134882
0.0013493
0.00133879
0.00131735
0.00128592
0.00124518
0.00119589
0.00113894
0.00107556
0.00100566
0.000931161
0.000858444
0.000800921
0.000770985
0.000766813
0.000781207
0.000805267
0.000823565
0.00081853
0.00078553
0.000742665
0.000699645
0.000642606
0.000550342
0.000255864
0.000545249
0.00077002
0.000922038
0.00102886
0.00111439
0.00118691
0.00124822
0.00129831
0.00133699
0.00136413
0.00137969
0.00138316
0.00137519
0.00135592
0.00132618
0.00128666
0.00123825
0.00118184
0.00111865
0.00104824
0.000971219
0.000891897
0.000822513
0.000777434
0.000760253
0.000765277
0.000785479
0.000806853
0.000811244
0.000791587
0.000755249
0.000713329
0.000653165
0.000558509
0.00026087
0.000547414
0.000771538
0.000924662
0.00103351
0.00112191
0.00119782
0.00126279
0.00131733
0.0013612
0.00139352
0.00141344
0.00142044
0.00141511
0.00139826
0.00137025
0.00133177
0.00128385
0.00122722
0.00116296
0.00109095
0.0010117
0.000928693
0.000852092
0.00079552
0.000763992
0.000758406
0.000769685
0.000791672
0.000804707
0.000796589
0.000768162
0.000729627
0.000671269
0.00058112
0.000266188
0.000552123
0.000775987
0.000928843
0.0010384
0.00112886
0.00120739
0.00127525
0.00133305
0.00138049
0.00141728
0.00144291
0.0014565
0.00145741
0.00144572
0.00141986
0.00138151
0.00133328
0.00127538
0.00120864
0.00113343
0.00104985
0.000960429
0.000874893
0.000808111
0.000768045
0.000755102
0.000762774
0.000784221
0.000801505
0.000800216
0.000778031
0.000742301
0.000682099
0.000578648
0.000273979
0.000559147
0.000781643
0.000933235
0.00104283
0.00113485
0.0012155
0.00128565
0.00134518
0.001394
0.00143213
0.00145958
0.00147633
0.00148259
0.00147836
0.00146235
0.00143336
0.00139019
0.00133299
0.00126365
0.00118544
0.00109728
0.00100055
0.000903612
0.000823301
0.000772822
0.000754805
0.000760377
0.000783591
0.00080276
0.000805634
0.000787744
0.000753719
0.00069027
0.000574059
0.000281661
0.000564444
0.000784983
0.000935328
0.00104482
0.00113864
0.00122194
0.00129503
0.00135791
0.00141014
0.00145132
0.00148112
0.00149936
0.00150644
0.00150301
0.00148893
0.00146426
0.00142843
0.00138068
0.00132038
0.0012457
0.00115634
0.00105666
0.000952933
0.00085997
0.000793631
0.000759703
0.000760629
0.000780477
0.000803134
0.000809665
0.000795449
0.000762615
0.000698591
0.000583166
0.000289617
0.000570654
0.000788698
0.000936652
0.00104529
0.00113966
0.0012248
0.00130043
0.00136595
0.00142106
0.00146532
0.00149832
0.00151973
0.00152975
0.00152864
0.00151644
0.00149315
0.00145875
0.00141333
0.001357
0.00128843
0.0012057
0.00110759
0.000999012
0.000900372
0.000825553
0.000778931
0.000765852
0.000780638
0.000803953
0.000815228
0.000805129
0.000774753
0.000711587
0.00059645
0.00029702
0.000575938
0.00079066
0.000936793
0.0010451
0.00113951
0.00122494
0.00130152
0.0013699
0.00142857
0.00147633
0.00151289
0.00153789
0.00155138
0.00155337
0.00154424
0.00152284
0.00148943
0.001444
0.00138663
0.00131671
0.00123323
0.00113507
0.00102467
0.000917664
0.000839004
0.000790181
0.000773614
0.000785284
0.000809723
0.000822553
0.000813646
0.000784176
0.000718326
0.000590503
0.000300624
0.000578244
0.000790873
0.000934953
0.00104238
0.00113703
0.00122359
0.0013015
0.00137005
0.00142982
0.00148075
0.00152025
0.00154869
0.001566
0.00157208
0.00156702
0.00155014
0.00152119
0.00147984
0.00142523
0.00135606
0.00127049
0.00116652
0.00104618
0.000926408
0.000840669
0.000794177
0.000782585
0.000796739
0.000819613
0.000830784
0.000821347
0.000790614
0.000717259
0.00056365
0.000302566
0.000579568
0.000789386
0.000930395
0.00103658
0.00113065
0.00121754
0.00129711
0.00136853
0.00143046
0.00148249
0.00152583
0.00155797
0.0015792
0.00158939
0.00158849
0.00157634
0.0015525
0.00151696
0.00146879
0.00140676
0.00132833
0.00122954
0.0011081
0.000974739
0.000861501
0.000798687
0.000785716
0.000803059
0.000827643
0.000838903
0.000829069
0.000796567
0.000717859
0.000561436
0.000305062
0.000580798
0.00078791
0.000926357
0.00103127
0.00112444
0.00121088
0.00129087
0.00136359
0.00142784
0.00148238
0.00152638
0.00156131
0.0015858
0.00159928
0.00160224
0.00159466
0.00157546
0.00154493
0.00150247
0.00144781
0.00137951
0.00129421
0.00118817
0.00106563
0.000941571
0.000841186
0.000800729
0.000809695
0.000834204
0.000845892
0.000836424
0.000803533
0.00072579
0.000580349
0.00030866
0.000582534
0.000786105
0.000920931
0.00102368
0.00111544
0.00120146
0.00128201
0.00135594
0.00142195
0.00147889
0.00152575
0.00156179
0.00158845
0.00160648
0.00161335
0.00160931
0.00159369
0.00156612
0.00152612
0.00147404
0.0014096
0.0013311
0.00123787
0.00113326
0.00101942
0.00090691
0.000832661
0.000819866
0.000838495
0.000852767
0.000845134
0.000813533
0.000735653
0.000589087
0.000310244
0.000582915
0.000783806
0.000915512
0.00101569
0.00110549
0.00119056
0.00127095
0.00134538
0.00141244
0.00147094
0.00152
0.00155924
0.00158834
0.0016074
0.0016175
0.00161684
0.00160517
0.00158077
0.00154272
0.00149097
0.00142571
0.00134628
0.00125288
0.00115049
0.00104467
0.000944574
0.000871844
0.000847379
0.000856119
0.000864069
0.000853243
0.000818762
0.000735183
0.000574579
0.000310409
0.000582785
0.000780428
0.000908634
0.00100607
0.00109411
0.00117815
0.00125823
0.00133299
0.00140086
0.00146053
0.00151106
0.00155224
0.00158404
0.00160621
0.00161841
0.00162173
0.00161566
0.0015971
0.00156437
0.00151698
0.00145355
0.00137239
0.0012731
0.00116122
0.00104795
0.000949393
0.000887552
0.000866513
0.000871765
0.000875445
0.000861836
0.000824881
0.000735385
0.000561554
0.000311022
0.000582501
0.000777821
0.000902898
0.000997712
0.00108373
0.00116641
0.00124585
0.00132063
0.00138905
0.00144959
0.00150121
0.00154371
0.00157712
0.00160139
0.00161638
0.00162184
0.00161822
0.00160459
0.00158058
0.001544
0.00149261
0.0014228
0.00133239
0.00122331
0.00109738
0.000980444
0.000906563
0.000883321
0.000886567
0.000886448
0.000870567
0.000831067
0.000737906
0.000568989
0.000314151
0.000583318
0.000775458
0.00089727
0.000989292
0.00107306
0.00115413
0.00123272
0.0013074
0.00137628
0.00143767
0.00149033
0.00153404
0.00156875
0.0015944
0.00161099
0.00161865
0.00161697
0.00160506
0.00158324
0.00155188
0.00151057
0.00145746
0.00139073
0.00130568
0.00119454
0.0010656
0.000959096
0.000908401
0.000898382
0.000895641
0.000879441
0.000840892
0.000752652
0.000600412
0.00031685
0.000583949
0.000773875
0.000892869
0.000982136
0.00106353
0.00114274
0.00122018
0.00129448
0.00136357
0.00142552
0.00147895
0.00152349
0.00155898
0.00158523
0.00160205
0.00160937
0.00160648
0.00159305
0.00156976
0.00153829
0.0014997
0.00145327
0.00139858
0.00133261
0.00124659
0.00113633
0.00102443
0.000952344
0.000926623
0.00091491
0.000893708
0.000852144
0.000760369
0.000602996
0.000317178
0.000583772
0.00077191
0.000888537
0.000975394
0.00105447
0.0011318
0.00120804
0.0012819
0.00135124
0.00141388
0.00146831
0.00151404
0.00155088
0.00157857
0.00159683
0.00160535
0.00160296
0.00158846
0.00156206
0.00152479
0.0014786
0.00142622
0.00137057
0.00131114
0.00124024
0.00115233
0.00106141
0.000991641
0.000955992
0.000934282
0.000906064
0.000857327
0.00075568
0.00057299
0.000315859
0.000583629
0.000770211
0.000884725
0.000969304
0.0010462
0.0011217
0.00119677
0.00127017
0.00133971
0.001403
0.0014584
0.00150533
0.00154356
0.00157294
0.00159322
0.00160364
0.00160279
0.00158916
0.00156211
0.00152256
0.00147198
0.00141192
0.00134673
0.00127958
0.00121209
0.00114366
0.00107479
0.00101798
0.000980881
0.000951829
0.000917828
0.000863819
0.000753271
0.00055385
0.000315079
0.000583197
0.000769211
0.00088131
0.000963444
0.00103804
0.00111161
0.00118551
0.0012586
0.00132853
0.00139271
0.00144932
0.00149765
0.00153743
0.00156855
0.001591
0.0016039
0.00160658
0.00159767
0.00157507
0.00153886
0.00148948
0.00142847
0.0013586
0.00128329
0.00121152
0.00114385
0.00108264
0.00103497
0.000999047
0.000966882
0.000929601
0.000871775
0.000754578
0.0005546
0.000315376
0.00058354
0.000769091
0.000879061
0.000958842
0.00103111
0.00110269
0.00117512
0.00124774
0.00131805
0.00138315
0.00144093
0.00149049
0.00153148
0.00156387
0.00158786
0.0016026
0.00160725
0.0016017
0.00158555
0.00155805
0.00151843
0.00146723
0.00140412
0.00132641
0.00123736
0.00115638
0.00109738
0.00105358
0.00101825
0.000982913
0.000942543
0.000883666
0.000768954
0.000590792
0.000318603
0.000585439
0.000769385
0.000878757
0.000955986
0.00102552
0.00109466
0.00116532
0.00123717
0.0013079
0.00137426
0.00143367
0.00148483
0.00152715
0.0015605
0.00158499
0.00160001
0.00160537
0.00160118
0.00158736
0.00156468
0.00153411
0.00149609
0.00144714
0.00138163
0.00129847
0.00120782
0.00113137
0.00107723
0.00103773
0.00100024
0.000958125
0.000898468
0.000786861
0.000616865
0.000322003
0.000587653
0.000770976
0.000878732
0.000954075
0.0010212
0.00108762
0.00115604
0.00122638
0.00129684
0.00136406
0.00142511
0.00147816
0.00152218
0.00155676
0.00158148
0.00159566
0.00159921
0.00159271
0.00157699
0.00155423
0.001526
0.00149353
0.00145362
0.00140237
0.00133547
0.00125333
0.00117205
0.001108
0.00106149
0.00101977
0.000974739
0.000912529
0.000798764
0.000618326
0.00032471
0.000589131
0.000771774
0.000878628
0.000952673
0.00101774
0.00108127
0.00114656
0.00121476
0.00128429
0.00135207
0.00141487
0.00147029
0.00151682
0.00155366
0.00157978
0.00159436
0.00159721
0.00158859
0.00156917
0.00154112
0.00150812
0.00147355
0.00143701
0.00139358
0.00133757
0.00127312
0.00120206
0.0011377
0.00108534
0.001038
0.000988541
0.000920663
0.000797788
0.000593874
0.000325162
0.000589409
0.00077211
0.000878542
0.000951619
0.00101476
0.0010754
0.00113706
0.00120184
0.00126939
0.00133686
0.00140098
0.00145894
0.00150865
0.0015489
0.00157803
0.00159495
0.00159932
0.00159061
0.00156954
0.0015384
0.00150046
0.00145953
0.00141623
0.00137111
0.00132461
0.00127266
0.00121643
0.00115944
0.0011063
0.00105548
0.00100268
0.000930567
0.000798696
0.000581082
0.000324033
0.000587159
0.000770533
0.000877573
0.000951288
0.00101375
0.00107193
0.00112971
0.00118986
0.00125379
0.00131964
0.00138421
0.00144435
0.00149737
0.00154129
0.00157419
0.00159501
0.00160357
0.00159872
0.00158021
0.00155015
0.0015115
0.00146704
0.00141844
0.00136931
0.00131949
0.00127222
0.00122439
0.00117527
0.00112418
0.00107152
0.00101582
0.000939823
0.000801153
0.000582223
0.00032254
0.000585387
0.000769182
0.000877202
0.000951333
0.00101357
0.00107056
0.00112487
0.00118022
0.0012389
0.00130135
0.00136481
0.0014261
0.00148196
0.00152944
0.00156632
0.00159146
0.0016041
0.00160413
0.00159229
0.00156869
0.00153593
0.00149443
0.00144358
0.00138478
0.00132619
0.001275
0.00123105
0.00118801
0.00114074
0.00108865
0.00103196
0.000955612
0.00081902
0.000612064
0.000321738
0.000582804
0.000767357
0.000876596
0.000951373
0.00101387
0.00107077
0.00112368
0.00117367
0.00122658
0.00128381
0.00134421
0.0014051
0.00146265
0.00151292
0.00155318
0.00158211
0.00159895
0.00160327
0.00159559
0.00157731
0.00155085
0.00151612
0.00147201
0.00141847
0.0013585
0.00130048
0.00124848
0.00120213
0.00115522
0.00110351
0.00104673
0.000969843
0.000833205
0.000622509
0.000320254
0.000579252
0.000764451
0.000875672
0.000952458
0.00101619
0.00107261
0.00112375
0.00117164
0.00121723
0.00126716
0.00132213
0.00137991
0.00143766
0.00148995
0.00153321
0.00156556
0.0015859
0.00159355
0.00158876
0.00157302
0.0015489
0.00151673
0.00147663
0.00142966
0.00137791
0.00132542
0.00127403
0.00122475
0.0011746
0.00112073
0.00106194
0.00098193
0.000839729
0.000617584
0.000314751
0.000572881
0.000759819
0.000873787
0.000953368
0.00101966
0.00107781
0.00112874
0.00117354
0.00121547
0.00125647
0.00130267
0.00135446
0.00140942
0.0014623
0.00150822
0.00154458
0.00156973
0.00158239
0.00158206
0.00156986
0.00154758
0.00151553
0.00147487
0.00142807
0.00137944
0.00133384
0.00128846
0.00124102
0.00118982
0.00113433
0.00107407
0.00099224
0.000846044
0.000611671
0.000308516
0.00056562
0.000753609
0.000870476
0.000953344
0.00102292
0.00108407
0.00113712
0.00118181
0.00121972
0.00125504
0.00129082
0.00133346
0.00138192
0.00143211
0.00147911
0.00151915
0.00155028
0.00157077
0.0015792
0.00157505
0.00155742
0.00152558
0.00148144
0.00143044
0.00138082
0.0013357
0.00129525
0.00125333
0.00120477
0.00114935
0.00108799
0.00100401
0.000852231
0.000615224
0.000303966
0.000557865
0.000746645
0.00086676
0.000953349
0.00102643
0.0010911
0.00114725
0.00119387
0.00123104
0.00126115
0.001289
0.00131925
0.00135664
0.00140034
0.00144467
0.00148583
0.00152143
0.00154991
0.00156973
0.00157934
0.00157656
0.0015571
0.00151952
0.00146693
0.00140783
0.00135547
0.00131147
0.00126931
0.00122135
0.00116589
0.00110434
0.00102217
0.000876129
0.000658759
0.000299974
0.000548513
0.000738274
0.00086206
0.00095242
0.00102981
0.00109896
0.00115952
0.00120988
0.00124896
0.00127742
0.00129851
0.00131866
0.00134314
0.00137348
0.00141065
0.0014482
0.00148358
0.00151547
0.00154295
0.00156473
0.00157666
0.00157433
0.00155385
0.00151227
0.00145554
0.00139494
0.0013397
0.0012905
0.00124012
0.00118394
0.00112219
0.00103946
0.00089406
0.000672503
0.000295171
0.000538462
0.000729431
0.000856599
0.000950573
0.00103201
0.00110581
0.00117149
0.00122687
0.00126998
0.00130012
0.00131862
0.0013303
0.00134276
0.00136092
0.00138264
0.00141021
0.00143994
0.00146942
0.00149859
0.00152752
0.00155273
0.00156589
0.00155909
0.0015342
0.00149073
0.00143271
0.00137244
0.00131666
0.00126194
0.00120374
0.00114008
0.00105402
0.000902529
0.000669595
0.000285099
0.000525229
0.000718266
0.000849423
0.000947128
0.00103254
0.00111127
0.00118242
0.00124388
0.00129352
0.00132927
0.00134983
0.00135759
0.00135925
0.00136245
0.00137147
0.00138484
0.00140188
0.00142286
0.00144769
0.00147671
0.00150669
0.00153184
0.00154442
0.00153333
0.00150456
0.00145891
0.0014001
0.00133931
0.00127936
0.00121827
0.00115155
0.00105976
0.00089897
0.000637008
0.000274643
0.000513517
0.000708126
0.000842083
0.00094269
0.00103173
0.00111506
0.00119216
0.00126091
0.00131812
0.00136102
0.0013882
0.00139942
0.00139844
0.0013919
0.00138546
0.00138372
0.00138801
0.00139703
0.00141101
0.0014316
0.00145643
0.00148254
0.00150433
0.0015141
0.00150329
0.00146923
0.00142282
0.00136427
0.00130125
0.00123666
0.00116652
0.00107019
0.000899117
0.000624943
0.000263008
0.000501438
0.000697701
0.000834637
0.000937946
0.00103012
0.00111723
0.00119911
0.00127431
0.00133964
0.00139174
0.00142751
0.00144594
0.00144994
0.00144361
0.00143058
0.0014162
0.00140516
0.00140029
0.00140294
0.00141146
0.00142306
0.00143671
0.00145218
0.00146601
0.00147162
0.00146071
0.00142604
0.00137543
0.00131503
0.00124986
0.00117831
0.00107905
0.000901504
0.000625805
0.000256345
0.000495887
0.000691626
0.00082957
0.000934631
0.00102887
0.0011185
0.0012054
0.0012873
0.00136139
0.0014234
0.00146937
0.0014976
0.00150978
0.0015088
0.00149748
0.00147966
0.00146048
0.00144467
0.0014352
0.00143144
0.00143217
0.0014369
0.00144235
0.00144755
0.00145199
0.00144907
0.00142893
0.00138905
0.0013337
0.00126902
0.00119622
0.00109663
0.000920547
0.000665348
0.000255857
0.00049412
0.000688859
0.000824542
0.00093012
0.00102502
0.0011165
0.00120633
0.00129464
0.00137711
0.00144973
0.00150686
0.00154526
0.00156554
0.00156993
0.0015627
0.00154659
0.00152683
0.00150853
0.00149565
0.00148655
0.00147894
0.00146985
0.00146057
0.00145502
0.00145407
0.00145046
0.00143436
0.00140187
0.00135239
0.00128962
0.00121743
0.00112051
0.000954116
0.00072545
0.000266397
0.000501747
0.000691105
0.000822967
0.000925316
0.00101789
0.00110911
0.00120259
0.00129836
0.00139351
0.00147917
0.00154818
0.00159714
0.00162612
0.00163623
0.00163117
0.00161483
0.0015931
0.00157202
0.00155672
0.0015458
0.00153695
0.00152697
0.00151369
0.00149879
0.00148313
0.00146864
0.00145098
0.00141997
0.00137199
0.00131044
0.00123871
0.00114068
0.000973739
0.000736689
0.000282828
0.00051413
0.000695817
0.000820245
0.000917448
0.00100772
0.00109935
0.00119584
0.0012971
0.00139887
0.00149368
0.00157047
0.00162756
0.00166371
0.00167915
0.00167703
0.00166192
0.00163973
0.00161703
0.00159989
0.0015879
0.00157976
0.00157194
0.00156058
0.00154506
0.00152501
0.0015022
0.00147606
0.00144039
0.00139101
0.00132944
0.00125623
0.00115477
0.000980998
0.000728279
0.000304821
0.000527372
0.00069738