/*--------------------------------*- C++ -*----------------------------------*\
| =========                 |                                                 |
| \\      /  F ield         | OpenFOAM: The Open Source CFD Toolbox           |
|  \\    /   O peration     | Version:  2.3.x                                 |
|   \\  /    A nd           | Web:      www.OpenFOAM.org                      |
|    \\/     M anipulation  |                                                 |
\*---------------------------------------------------------------------------*/
FoamFile
{
    version     2.0;
    format      ascii;
    class       volScalarField;
    location    "1000";
    object      mut;
}
// * * * * * * * * * * * * * * * * * * * * * * * * * * * * * * * * * * * * * //

dimensions      [1 -1 -1 0 0 0 0];

internalField   nonuniform List<scalar> 
78750
(
3.1174e-07
9.87876e-06
1.20003e-05
1.60937e-05
2.03967e-05
2.15158e-05
2.03402e-05
1.88598e-05
1.84331e-05
1.80443e-05
1.7968e-05
1.813e-05
1.84536e-05
1.87481e-05
1.95389e-05
2.09933e-05
2.18469e-05
2.21278e-05
2.29172e-05
2.31102e-05
2.23407e-05
2.39943e-05
2.56005e-05
2.55685e-05
2.60256e-05
2.56915e-05
2.52376e-05
2.42937e-05
2.29648e-05
2.11783e-05
1.89813e-05
1.70542e-05
1.45472e-05
1.21113e-05
5.09641e-07
1.17353e-07
8.87699e-06
1.0268e-05
8.42715e-06
9.61987e-06
1.06921e-05
1.45634e-05
2.27145e-05
3.01577e-05
3.56915e-05
3.89219e-05
4.16021e-05
4.46514e-05
4.66195e-05
4.65425e-05
4.57291e-05
4.79362e-05
5.11171e-05
5.37435e-05
5.89244e-05
6.36683e-05
6.39868e-05
6.33126e-05
6.11772e-05
5.79616e-05
5.45238e-05
3.98331e-05
4.10723e-05
4.1684e-05
2.99372e-05
2.51626e-05
2.03965e-05
1.68809e-05
1.8702e-05
6.21599e-07
5.08424e-08
3.59335e-06
5.51355e-06
8.03873e-06
1.28613e-05
2.27927e-05
3.71395e-05
4.85374e-05
5.77424e-05
6.44459e-05
6.84112e-05
7.09107e-05
7.15674e-05
7.11602e-05
7.07156e-05
7.31018e-05
7.59678e-05
7.52769e-05
7.19473e-05
6.74636e-05
6.32218e-05
5.9649e-05
5.62514e-05
5.29359e-05
4.77751e-05
3.60666e-05
3.88893e-05
3.98552e-05
2.85324e-05
2.55785e-05
2.23894e-05
1.81568e-05
1.82625e-05
2.93453e-05
7.99729e-07
6.86745e-08
4.29236e-06
8.64124e-06
1.64708e-05
2.97873e-05
4.45572e-05
5.56087e-05
6.46488e-05
7.17151e-05
7.67436e-05
7.90368e-05
7.96097e-05
7.86505e-05
7.60633e-05
7.12397e-05
6.45908e-05
6.17428e-05
6.23839e-05
5.93939e-05
5.41112e-05
4.93533e-05
4.54424e-05
4.1919e-05
3.70578e-05
3.02213e-05
3.24315e-05
3.45537e-05
2.9022e-05
2.60688e-05
2.11405e-05
1.67271e-05
1.48885e-05
1.91323e-05
2.48135e-05
8.15524e-07
1.21659e-07
4.23683e-06
9.87007e-06
1.97076e-05
3.48252e-05
5.18055e-05
6.42189e-05
7.15618e-05
7.563e-05
7.69537e-05
7.64255e-05
7.44893e-05
7.1675e-05
6.82331e-05
6.4348e-05
6.0017e-05
5.57864e-05
5.18153e-05
4.89256e-05
4.6454e-05
4.37456e-05
4.08781e-05
3.78021e-05
3.4112e-05
3.00626e-05
3.14185e-05
3.03032e-05
2.37813e-05
2.01731e-05
1.6805e-05
1.38426e-05
1.32405e-05
1.91845e-05
2.05609e-05
7.78765e-07
1.69303e-07
5.00859e-06
1.22592e-05
2.53646e-05
4.4111e-05
6.0952e-05
7.17393e-05
7.75126e-05
7.95906e-05
7.88757e-05
7.65784e-05
7.3329e-05
6.95911e-05
6.55212e-05
6.12948e-05
5.74231e-05
5.35666e-05
4.94534e-05
4.61394e-05
4.37071e-05
4.12917e-05
3.84347e-05
3.52869e-05
3.15833e-05
2.79679e-05
2.95586e-05
2.97564e-05
2.40051e-05
1.95196e-05
1.5059e-05
1.20086e-05
1.20673e-05
1.89215e-05
1.66546e-05
7.45157e-07
1.92922e-07
4.93174e-06
1.2218e-05
2.54297e-05
4.43052e-05
6.14458e-05
7.21004e-05
7.72846e-05
7.86909e-05
7.74756e-05
7.49809e-05
7.18021e-05
6.82607e-05
6.45029e-05
6.05318e-05
5.61993e-05
5.21181e-05
4.8642e-05
4.51863e-05
4.16774e-05
3.87404e-05
3.64744e-05
3.42835e-05
3.14782e-05
2.8191e-05
2.94474e-05
2.89526e-05
2.30781e-05
1.85602e-05
1.4019e-05
1.10213e-05
1.12563e-05
1.85243e-05
1.45954e-05
7.4003e-07
2.18307e-07
5.18784e-06
1.32196e-05
2.80996e-05
4.86017e-05
6.56456e-05
7.55286e-05
8.01227e-05
8.10525e-05
7.93641e-05
7.66679e-05
7.36121e-05
6.99531e-05
6.53651e-05
6.06572e-05
5.66789e-05
5.35045e-05
5.06067e-05
4.75487e-05
4.42388e-05
4.08105e-05
3.74608e-05
3.43079e-05
3.11673e-05
2.78751e-05
2.92386e-05
2.87801e-05
2.28031e-05
1.82548e-05
1.36769e-05
1.06174e-05
1.07114e-05
1.79134e-05
1.31829e-05
7.55621e-07
2.44396e-07
5.21036e-06
1.34012e-05
2.86211e-05
4.89544e-05
6.53138e-05
7.49434e-05
7.97327e-05
8.09745e-05
7.95277e-05
7.63455e-05
7.13261e-05
6.59947e-05
6.21035e-05
5.94849e-05
5.72298e-05
5.49649e-05
5.25995e-05
4.99173e-05
4.70035e-05
4.38513e-05
4.03197e-05
3.62608e-05
3.17755e-05
2.76485e-05
2.87968e-05
2.82788e-05
2.23535e-05
1.79132e-05
1.34385e-05
1.03132e-05
1.03291e-05
1.74936e-05
1.21284e-05
7.91736e-07
2.67765e-07
5.37379e-06
1.40751e-05
3.06828e-05
5.24583e-05
6.86994e-05
7.75237e-05
8.13052e-05
8.14355e-05
7.92369e-05
7.59561e-05
7.14768e-05
6.64078e-05
6.25452e-05
6.00041e-05
5.81498e-05
5.61667e-05
5.39553e-05
5.15908e-05
4.87846e-05
4.56089e-05
4.21017e-05
3.80098e-05
3.3156e-05
2.84319e-05
2.87175e-05
2.71827e-05
2.1191e-05
1.68062e-05
1.26502e-05
9.9003e-06
1.0205e-05
1.80762e-05
1.09885e-05
8.15769e-07
2.94862e-07
5.45863e-06
1.4452e-05
3.20087e-05
5.44085e-05
6.98487e-05
7.77191e-05
8.08305e-05
8.03481e-05
7.72612e-05
7.17993e-05
6.65769e-05
6.35214e-05
6.19899e-05
6.03529e-05
5.86237e-05
5.70206e-05
5.54049e-05
5.36427e-05
5.14014e-05
4.83764e-05
4.46212e-05
4.01783e-05
3.49876e-05
2.9885e-05
2.94807e-05
2.67873e-05
2.03646e-05
1.59353e-05
1.20635e-05
9.64382e-06
1.02253e-05
1.87079e-05
1.02764e-05
8.36452e-07
3.20474e-07
5.53992e-06
1.48278e-05
3.33208e-05
5.62891e-05
7.07942e-05
7.74089e-05
7.91816e-05
7.7311e-05
7.34035e-05
6.80433e-05
6.41547e-05
6.21049e-05
6.05609e-05
5.96448e-05
5.89784e-05
5.82659e-05
5.74791e-05
5.66266e-05
5.526e-05
5.27799e-05
4.89246e-05
4.36354e-05
3.74388e-05
3.17654e-05
3.10129e-05
2.74422e-05
2.03202e-05
1.55536e-05
1.16798e-05
9.38369e-06
1.01111e-05
1.90689e-05
9.77571e-06
8.7167e-07
3.63603e-07
5.70234e-06
1.55495e-05
3.55767e-05
5.88287e-05
7.17189e-05
7.68273e-05
7.70801e-05
7.36725e-05
6.77821e-05
6.34006e-05
6.08533e-05
5.91396e-05
5.89331e-05
5.97261e-05
6.05824e-05
6.08847e-05
6.07737e-05
6.0627e-05
6.00834e-05
5.82892e-05
5.47096e-05
4.91022e-05
4.18131e-05
3.47689e-05
3.2798e-05
2.80873e-05
2.04106e-05
1.52017e-05
1.12476e-05
9.11788e-06
1.02078e-05
2.05027e-05
9.15815e-06
8.91565e-07
4.05609e-07
5.8346e-06
1.61299e-05
3.74255e-05
6.09402e-05
7.25178e-05
7.56876e-05
7.37416e-05
6.79805e-05
6.26387e-05
5.90808e-05
5.66436e-05
5.64887e-05
5.82114e-05
6.07935e-05
6.30851e-05
6.42091e-05
6.43513e-05
6.44297e-05
6.4289e-05
6.28916e-05
5.95281e-05
5.39648e-05
4.61227e-05
3.82229e-05
3.46254e-05
2.79989e-05
1.96934e-05
1.43454e-05
1.07234e-05
9.08933e-06
1.0808e-05
2.26822e-05
8.68899e-06
8.93874e-07
4.58361e-07
6.05816e-06
1.70754e-05
4.00592e-05
6.32896e-05
7.28527e-05
7.35457e-05
6.85818e-05
6.30554e-05
5.80198e-05
5.39898e-05
5.29893e-05
5.49118e-05
5.86358e-05
6.28603e-05
6.62855e-05
6.80083e-05
6.81e-05
6.78793e-05
6.78839e-05
6.69528e-05
6.4046e-05
5.88617e-05
5.10212e-05
4.26024e-05
3.78492e-05
2.97503e-05
2.04413e-05
1.45236e-05
1.07157e-05
9.06817e-06
1.08126e-05
2.28049e-05
8.51668e-06
9.15296e-07
4.96005e-07
6.22911e-06
1.77968e-05
4.18976e-05
6.4566e-05
7.2408e-05
7.12954e-05
6.55907e-05
5.85412e-05
5.28574e-05
5.03299e-05
5.08074e-05
5.37844e-05
5.85875e-05
6.39454e-05
6.83625e-05
7.07865e-05
7.10521e-05
7.06727e-05
7.0878e-05
7.0545e-05
6.83165e-05
6.37734e-05
5.61365e-05
4.7332e-05
4.16025e-05
3.21273e-05
2.18358e-05
1.50318e-05
1.0716e-05
8.89544e-06
1.08186e-05
2.42568e-05
8.12937e-06
9.28918e-07
5.1946e-07
6.35887e-06
1.83423e-05
4.31374e-05
6.50656e-05
7.15072e-05
6.90318e-05
6.2538e-05
5.61231e-05
5.13609e-05
4.84523e-05
4.83715e-05
5.12845e-05
5.63049e-05
6.22265e-05
6.77119e-05
7.14513e-05
7.26996e-05
7.26805e-05
7.30537e-05
7.31208e-05
7.1178e-05
6.6849e-05
5.98368e-05
5.31776e-05
4.41013e-05
3.14392e-05
2.10948e-05
1.42775e-05
1.04103e-05
9.20199e-06
1.21301e-05
2.77681e-05
7.83708e-06
9.17543e-07
5.32289e-07
6.42583e-06
1.86497e-05
4.37824e-05
6.50255e-05
7.0952e-05
6.82977e-05
6.18214e-05
5.51561e-05
5.00378e-05
4.72126e-05
4.66596e-05
4.82502e-05
5.24033e-05
5.8718e-05
6.53111e-05
7.0422e-05
7.31007e-05
7.37463e-05
7.42394e-05
7.45768e-05
7.29709e-05
6.91038e-05
6.27167e-05
5.62575e-05
4.54489e-05
3.23255e-05
2.17418e-05
1.43143e-05
1.03716e-05
9.51384e-06
1.2941e-05
2.80426e-05
7.82957e-06
9.15068e-07
5.48696e-07
6.47105e-06
1.89158e-05
4.44015e-05
6.49949e-05
7.06141e-05
6.84355e-05
6.24941e-05
5.55458e-05
4.96001e-05
4.57361e-05
4.43931e-05
4.56873e-05
4.92118e-05
5.47581e-05
6.20138e-05
6.87702e-05
7.30768e-05
7.47044e-05
7.58679e-05
7.69077e-05
7.59713e-05
7.24763e-05
6.60797e-05
5.99357e-05
4.87459e-05
3.55605e-05
2.49777e-05
1.63914e-05
1.11698e-05
9.53004e-06
1.23016e-05
2.72813e-05
7.78817e-06
9.51958e-07
5.6279e-07
6.50545e-06
1.9038e-05
4.45219e-05
6.4597e-05
6.99938e-05
6.81132e-05
6.29229e-05
5.67292e-05
5.08372e-05
4.61761e-05
4.34187e-05
4.31087e-05
4.56378e-05
5.07595e-05
5.77697e-05
6.55922e-05
7.19163e-05
7.5413e-05
7.77588e-05
7.97723e-05
7.97706e-05
7.69519e-05
7.0402e-05
6.32077e-05
5.05808e-05
3.67344e-05
2.62079e-05
1.78903e-05
1.21501e-05
9.82855e-06
1.27036e-05
2.94855e-05
7.54407e-06
9.77825e-07
5.75417e-07
6.54313e-06
1.91472e-05
4.44229e-05
6.3861e-05
6.90999e-05
6.75218e-05
6.29904e-05
5.76333e-05
5.24219e-05
4.7693e-05
4.39019e-05
4.18586e-05
4.22873e-05
4.57483e-05
5.19117e-05
5.97797e-05
6.76387e-05
7.32733e-05
7.71789e-05
8.01823e-05
8.11188e-05
7.7693e-05
7.14044e-05
6.34874e-05
4.98865e-05
3.55494e-05
2.4541e-05
1.68477e-05
1.22712e-05
1.0925e-05
1.50839e-05
3.11895e-05
7.40676e-06
9.62251e-07
5.81498e-07
6.54551e-06
1.91568e-05
4.4191e-05
6.31949e-05
6.84896e-05
6.73744e-05
6.34812e-05
5.87458e-05
5.40865e-05
4.97158e-05
4.56487e-05
4.22291e-05
4.04629e-05
4.13255e-05
4.55715e-05
5.25572e-05
6.0551e-05
6.79126e-05
7.35319e-05
7.70493e-05
7.79614e-05
7.54435e-05
7.1211e-05
6.16562e-05
4.83383e-05
3.57228e-05
2.4659e-05
1.6841e-05
1.24239e-05
1.16226e-05
1.62529e-05
3.11425e-05
7.45383e-06
9.58575e-07
5.88406e-07
6.55345e-06
1.91782e-05
4.4053e-05
6.29164e-05
6.84402e-05
6.77889e-05
6.44445e-05
6.01894e-05
5.59056e-05
5.18505e-05
4.80034e-05
4.43167e-05
4.11135e-05
3.9447e-05
4.04955e-05
4.50365e-05
5.26971e-05
6.11267e-05
6.84376e-05
7.39854e-05
7.62337e-05
7.43759e-05
7.10865e-05
6.15264e-05
4.88687e-05
3.80197e-05
2.75423e-05
1.85433e-05
1.3171e-05
1.17482e-05
1.58082e-05
3.14316e-05
7.6097e-06
1.00625e-06
5.9558e-07
6.56662e-06
1.91922e-05
4.37729e-05
6.2704e-05
6.86617e-05
6.86365e-05
6.59368e-05
6.22451e-05
5.83329e-05
5.44855e-05
5.07331e-05
4.70193e-05
4.33771e-05
4.02269e-05
3.86368e-05
3.98941e-05
4.4673e-05
5.26489e-05
6.17264e-05
6.95796e-05
7.43916e-05
7.4208e-05
7.15307e-05
6.15557e-05
4.85906e-05
3.80135e-05
2.84131e-05
2.02214e-05
1.43569e-05
1.20888e-05
1.59897e-05
3.26993e-05
7.47019e-06
1.04814e-06
6.01512e-07
6.58545e-06
1.92199e-05
4.33113e-05
6.21495e-05
6.85897e-05
6.91706e-05
6.71437e-05
6.40504e-05
6.05776e-05
5.70212e-05
5.34331e-05
4.97841e-05
4.60361e-05
4.23016e-05
3.91012e-05
3.75034e-05
3.87776e-05
4.35897e-05
5.14757e-05
6.03179e-05
6.76201e-05
7.20509e-05
6.83731e-05
5.79399e-05
4.66201e-05
3.56006e-05
2.62229e-05
1.91743e-05
1.47198e-05
1.36801e-05
1.91629e-05
3.30036e-05
7.39797e-06
1.03776e-06
6.03941e-07
6.59981e-06
1.92015e-05
4.31402e-05
6.18266e-05
6.86621e-05
6.97868e-05
6.84018e-05
6.58984e-05
6.28813e-05
5.96273e-05
5.61879e-05
5.25829e-05
4.8808e-05
4.48831e-05
4.09952e-05
3.7711e-05
3.59565e-05
3.69056e-05
4.12924e-05
4.89097e-05
5.73967e-05
6.4255e-05
6.24285e-05
5.36933e-05
4.43784e-05
3.45974e-05
2.57673e-05
1.90656e-05
1.5139e-05
1.47229e-05
2.08745e-05
3.33178e-05
7.50268e-06
1.03466e-06
6.02958e-07
6.57222e-06
1.91491e-05
4.28987e-05
6.14678e-05
6.87815e-05
7.05751e-05
6.97977e-05
6.77799e-05
6.52097e-05
6.23244e-05
5.91611e-05
5.57111e-05
5.19642e-05
4.79358e-05
4.3728e-05
3.96499e-05
3.62838e-05
3.44086e-05
3.50394e-05
3.90588e-05
4.62676e-05
5.50066e-05
5.65464e-05
5.01157e-05
4.25996e-05
3.42287e-05
2.60927e-05
1.95755e-05
1.55627e-05
1.50869e-05
2.14225e-05
3.37952e-05
7.52929e-06
1.05763e-06
5.97324e-07
6.56042e-06
1.90205e-05
4.23906e-05
6.12204e-05
6.89223e-05
7.13916e-05
7.1236e-05
6.98477e-05
6.78056e-05
6.52813e-05
6.23742e-05
5.90871e-05
5.5421e-05
5.13693e-05
4.69716e-05
4.24104e-05
3.8116e-05
3.46377e-05
3.26669e-05
3.30636e-05
3.66426e-05
4.43192e-05
4.88069e-05
4.55335e-05
3.98422e-05
3.249e-05
2.51824e-05
1.93112e-05
1.58477e-05
1.59544e-05
2.32492e-05
3.39799e-05
7.56359e-06
1.07738e-06
5.90523e-07
6.52049e-06
1.8886e-05
4.22881e-05
6.16949e-05
6.98723e-05
7.26165e-05
7.29183e-05
7.19248e-05
7.02469e-05
6.80794e-05
6.54842e-05
6.24379e-05
5.89292e-05
5.49467e-05
5.0502e-05
4.5685e-05
4.07647e-05
3.61844e-05
3.24639e-05
3.02407e-05
3.04096e-05
3.48495e-05
3.93697e-05
3.89798e-05
3.6146e-05
3.05401e-05
2.42684e-05
1.9093e-05
1.62099e-05
1.69457e-05
2.50452e-05
3.38792e-05
7.63374e-06
1.08074e-06
5.8638e-07
6.48385e-06
1.87861e-05
4.22166e-05
6.18113e-05
7.04764e-05
7.38164e-05
7.4563e-05
7.39714e-05
7.26535e-05
7.08556e-05
6.85865e-05
6.58187e-05
6.25319e-05
5.87002e-05
5.42928e-05
4.93294e-05
4.3975e-05
3.86253e-05
3.37125e-05
2.97335e-05
2.75429e-05
2.94958e-05
3.22646e-05
3.22703e-05
3.2025e-05
2.89902e-05
2.40407e-05
1.9375e-05
1.6502e-05
1.71273e-05
2.50312e-05
3.50558e-05
7.77731e-06
1.12161e-06
5.85303e-07
6.44915e-06
1.86083e-05
4.15416e-05
6.10381e-05
7.02073e-05
7.4251e-05
7.56722e-05
7.56544e-05
7.47866e-05
7.34159e-05
7.15832e-05
6.92211e-05
6.62819e-05
6.27185e-05
5.84703e-05
5.35024e-05
4.78938e-05
4.19623e-05
3.61835e-05
3.10056e-05
2.7319e-05
2.64879e-05
2.84131e-05
2.84127e-05
2.72121e-05
2.63625e-05
2.30982e-05
1.90974e-05
1.64701e-05
1.73299e-05
2.58366e-05
3.53876e-05
7.79677e-06
1.16228e-06
5.8667e-07
6.4101e-06
1.84823e-05
4.13528e-05
6.12008e-05
7.0829e-05
7.52122e-05
7.69975e-05
7.73928e-05
7.68891e-05
7.5716e-05
7.42007e-05
7.22839e-05
6.97604e-05
6.65506e-05
6.25558e-05
5.77319e-05
5.20763e-05
4.57963e-05
3.94171e-05
3.35559e-05
2.86788e-05
2.50185e-05
2.48262e-05
2.48784e-05
2.34534e-05
2.27374e-05
2.08039e-05
1.82061e-05
1.66956e-05
1.88158e-05
2.92257e-05
3.38635e-05
7.74805e-06
1.15846e-06
5.93522e-07
6.38893e-06
1.85841e-05
4.19999e-05
6.22404e-05
7.21864e-05
7.68407e-05
7.87274e-05
7.92048e-05
7.89797e-05
7.83297e-05
7.70647e-05
7.52102e-05
7.2804e-05
6.98753e-05
6.62042e-05
6.1623e-05
5.61696e-05
4.9866e-05
4.29585e-05
3.59427e-05
2.95569e-05
2.47408e-05
2.32037e-05
2.23246e-05
2.08174e-05
2.00447e-05
1.88431e-05
1.74876e-05
1.7275e-05
2.05243e-05
3.15577e-05
3.38378e-05
7.81503e-06
1.14947e-06
6.06533e-07
6.41135e-06
1.88151e-05
4.27506e-05
6.29624e-05
7.27853e-05
7.75762e-05
7.97301e-05
8.04874e-05
8.04459e-05
8.00003e-05
7.91927e-05
7.79324e-05
7.60881e-05
7.33252e-05
6.96882e-05
6.52369e-05
6.00464e-05
5.3798e-05
4.649e-05
3.86031e-05
3.11112e-05
2.53479e-05
2.30898e-05
2.10707e-05
1.92101e-05
1.88079e-05
1.80535e-05
1.71797e-05
1.72525e-05
2.07095e-05
3.19465e-05
3.43985e-05
7.94128e-06
1.16641e-06
6.18338e-07
6.41451e-06
1.89097e-05
4.2953e-05
6.28917e-05
7.25929e-05
7.74313e-05
7.99231e-05
8.08585e-05
8.11739e-05
8.09815e-05
8.0393e-05
7.92983e-05
7.77544e-05
7.57869e-05
7.33952e-05
7.0009e-05
6.51016e-05
5.87749e-05
5.10349e-05
4.22473e-05
3.38286e-05
2.70906e-05
2.40687e-05
2.08528e-05
1.79096e-05
1.74562e-05
1.71067e-05
1.6425e-05
1.66058e-05
2.02199e-05
3.20622e-05
3.46268e-05
7.95398e-06
1.21333e-06
6.30885e-07
6.44577e-06
1.91508e-05
4.37088e-05
6.36124e-05
7.31812e-05
7.80193e-05
8.03564e-05
8.16074e-05
8.23559e-05
8.27174e-05
8.27453e-05
8.23131e-05
8.11429e-05
7.91345e-05
7.61801e-05
7.25641e-05
6.80925e-05
6.23875e-05
5.53042e-05
4.69413e-05
3.75949e-05
2.92357e-05
2.4334e-05
2.03816e-05
1.7063e-05
1.58986e-05
1.56499e-05
1.55291e-05
1.65049e-05
2.13459e-05
3.48649e-05
3.29937e-05
7.86756e-06
1.208e-06
6.49258e-07
6.49759e-06
1.9507e-05
4.47038e-05
6.43977e-05
7.37157e-05
7.83985e-05
8.07997e-05
8.23363e-05
8.31775e-05
8.36551e-05
8.38783e-05
8.38033e-05
8.33134e-05
8.22612e-05
8.03589e-05
7.73379e-05
7.30833e-05
6.73182e-05
5.96968e-05
5.05367e-05
4.06504e-05
3.16059e-05
2.48576e-05
2.03153e-05
1.67552e-05
1.48772e-05
1.45677e-05
1.50576e-05
1.69204e-05
2.26822e-05
3.61821e-05
3.30426e-05
7.9097e-06
1.19841e-06
6.67367e-07
6.54304e-06
1.9807e-05
4.53219e-05
6.4558e-05
7.33687e-05
7.8003e-05
8.05249e-05
8.21047e-05
8.32175e-05
8.40535e-05
8.46173e-05
8.47882e-05
8.44432e-05
8.35012e-05
8.18101e-05
7.91811e-05
7.55667e-05
7.08489e-05
6.4549e-05
5.59483e-05
4.54217e-05
3.4827e-05
2.61549e-05
2.1487e-05
1.73056e-05
1.44897e-05
1.42181e-05
1.48774e-05
1.68585e-05
2.24853e-05
3.61216e-05
3.35205e-05
8.00928e-06
1.21729e-06
6.8612e-07
6.62782e-06
2.02299e-05
4.61286e-05
6.4648e-05
7.30027e-05
7.73054e-05
7.96901e-05
8.14395e-05
8.29085e-05
8.42093e-05
8.52648e-05
8.58748e-05
8.58361e-05
8.50141e-05
8.33294e-05
8.07771e-05
7.75603e-05
7.37523e-05
6.87809e-05
6.12819e-05
5.06585e-05
3.87609e-05
2.83187e-05
2.29259e-05
1.80756e-05
1.45037e-05
1.39221e-05
1.44156e-05
1.61022e-05
2.19345e-05
3.66607e-05
3.2628e-05
7.90248e-06
1.24483e-06
7.0356e-07
6.70904e-06
2.06814e-05
4.69859e-05
6.50335e-05
7.29139e-05
7.68162e-05
7.91135e-05
8.10207e-05
8.2832e-05
8.45805e-05
8.61622e-05
8.73401e-05
8.78622e-05
8.7518e-05
8.61417e-05
8.3555e-05
8.00114e-05
7.58958e-05
7.10742e-05
6.42886e-05
5.4355e-05
4.20377e-05
3.02641e-05
2.29667e-05
1.75663e-05
1.42469e-05
1.33738e-05
1.39069e-05
1.64537e-05
2.38323e-05
4.01093e-05
3.10171e-05
7.83432e-06
1.23226e-06
7.12042e-07
6.76468e-06
2.09805e-05
4.76101e-05
6.52195e-05
7.25723e-05
7.61668e-05
7.83712e-05
8.0153e-05
8.20009e-05
8.40052e-05
8.58883e-05
8.7417e-05
8.83055e-05
8.83032e-05
8.72115e-05
8.4881e-05
8.15276e-05
7.76504e-05
7.32335e-05
6.69184e-05
5.72954e-05
4.48446e-05
3.21342e-05
2.28345e-05
1.69616e-05
1.39077e-05
1.31261e-05
1.40045e-05
1.71797e-05
2.54713e-05
4.15603e-05
2.98963e-05
7.69879e-06
1.17637e-06
7.16611e-07
6.79974e-06
2.12348e-05
4.80752e-05
6.49765e-05
7.17273e-05
7.49092e-05
7.69164e-05
7.87432e-05
8.07231e-05
8.28936e-05
8.51709e-05
8.71239e-05
8.84611e-05
8.89025e-05
8.81941e-05
8.61529e-05
8.29227e-05
7.91449e-05
7.49687e-05
6.89579e-05
5.96701e-05
4.7663e-05
3.50118e-05
2.49169e-05
1.76412e-05
1.3893e-05
1.29872e-05
1.39405e-05
1.73558e-05
2.58168e-05
4.16985e-05
3.01231e-05
7.71139e-06
1.17179e-06
7.22487e-07
6.83227e-06
2.14609e-05
4.84609e-05
6.48124e-05
7.1025e-05
7.38155e-05
7.56291e-05
7.74476e-05
7.95945e-05
8.20091e-05
8.44534e-05
8.67179e-05
8.84066e-05
8.91948e-05
8.8856e-05
8.7196e-05
8.42619e-05
8.08142e-05
7.71821e-05
7.1753e-05
6.27349e-05
5.0756e-05
3.82858e-05
2.90148e-05
2.04786e-05
1.4776e-05
1.30144e-05
1.3845e-05
1.7363e-05
2.56816e-05
4.13928e-05
3.1346e-05
7.82768e-06
1.21102e-06
7.30964e-07
6.87953e-06
2.1753e-05
4.88937e-05
6.45561e-05
7.02215e-05
7.26685e-05
7.43548e-05
7.62274e-05
7.85665e-05
8.12815e-05
8.40763e-05
8.65952e-05
8.8637e-05
8.99736e-05
9.01622e-05
8.896e-05
8.63841e-05
8.3272e-05
8.01774e-05
7.52744e-05
6.61174e-05
5.35201e-05
4.23796e-05
3.2183e-05
2.2173e-05
1.59412e-05
1.34423e-05
1.36161e-05
1.6603e-05
2.53089e-05
4.29501e-05
2.97446e-05
7.73535e-06
1.22911e-06
7.34693e-07
6.91851e-06
2.19894e-05
4.91664e-05
6.42368e-05
6.93196e-05
7.13994e-05
7.29191e-05
7.48165e-05
7.73187e-05
8.02775e-05
8.33585e-05
8.61808e-05
8.84027e-05
8.97821e-05
9.01562e-05
8.91871e-05
8.68471e-05
8.39295e-05
8.12965e-05
7.75519e-05
7.00444e-05
5.72863e-05
4.36473e-05
3.109e-05
2.15997e-05
1.61763e-05
1.38479e-05
1.4145e-05
1.78126e-05
2.81355e-05
4.52235e-05
2.86215e-05
7.64189e-06
1.19877e-06
7.3508e-07
6.93071e-06
2.21279e-05
4.9414e-05
6.3701e-05
6.81576e-05
6.97458e-05
7.09888e-05
7.28166e-05
7.54136e-05
7.8566e-05
8.18762e-05
8.49375e-05
8.74032e-05
8.89629e-05
8.93521e-05
8.84768e-05
8.63586e-05
8.35734e-05
8.08857e-05
7.71172e-05
7.0237e-05
5.89384e-05
4.522e-05
3.16268e-05
2.17498e-05
1.63266e-05
1.41197e-05
1.45632e-05
1.84696e-05
2.88713e-05
4.53971e-05
2.84439e-05
7.59729e-06
1.17171e-06
7.36524e-07
6.92974e-06
2.22713e-05
4.96618e-05
6.32153e-05
6.70526e-05
6.81481e-05
6.91082e-05
7.08545e-05
7.35311e-05
7.68639e-05
8.03876e-05
8.36453e-05
8.6265e-05
8.79424e-05
8.84203e-05
8.7527e-05
8.5365e-05
8.26042e-05
8.00022e-05
7.61435e-05
6.92534e-05
5.91615e-05
4.85083e-05
3.54298e-05
2.3884e-05
1.72323e-05
1.44509e-05
1.47842e-05
1.87511e-05
2.92459e-05
4.57308e-05
2.90714e-05
7.68086e-06
1.18716e-06
7.439e-07
6.95753e-06
2.24501e-05
4.9716e-05
6.27147e-05
6.59976e-05
6.66816e-05
6.73876e-05
6.90846e-05
7.18926e-05
7.54781e-05
7.93099e-05
8.28857e-05
8.58046e-05
8.77471e-05
8.84683e-05
8.78446e-05
8.59512e-05
8.34558e-05
8.10949e-05
7.72136e-05
6.97009e-05
5.92451e-05
5.0706e-05
3.9198e-05
2.73909e-05
1.9391e-05
1.54194e-05
1.52431e-05
1.85904e-05
2.78334e-05
4.49353e-05
2.98173e-05
7.73029e-06
1.25232e-06
7.50264e-07
6.97767e-06
2.2528e-05
4.98257e-05
6.20696e-05
6.49147e-05
6.52172e-05
6.56867e-05
6.734e-05
7.03232e-05
7.42327e-05
7.84521e-05
8.2407e-05
8.5649e-05
8.78381e-05
8.87333e-05
8.82395e-05
8.64671e-05
8.42003e-05
8.2286e-05
7.89176e-05
7.11828e-05
5.91837e-05
4.87992e-05
3.74569e-05
2.7646e-05
2.1181e-05
1.69021e-05
1.56881e-05
1.90143e-05
3.05047e-05
4.79529e-05
2.84017e-05
7.68794e-06
1.25756e-06
7.51038e-07
6.96954e-06
2.25387e-05
4.96628e-05
6.13583e-05
6.34414e-05
6.34448e-05
6.35737e-05
6.5099e-05
6.81865e-05
7.23902e-05
7.70054e-05
8.13651e-05
8.49425e-05
8.73547e-05
8.8366e-05
8.79305e-05
8.61991e-05
8.39421e-05
8.20152e-05
7.86685e-05
7.08587e-05
5.87917e-05
4.52108e-05
3.37203e-05
2.58012e-05
2.05951e-05
1.75674e-05
1.73476e-05
2.19082e-05
3.46601e-05
4.91252e-05
2.72338e-05
7.54315e-06
1.1951e-06
7.47933e-07
6.96032e-06
2.24073e-05
4.9465e-05
6.08975e-05
6.21488e-05
6.13381e-05
6.13371e-05
6.26549e-05
6.57746e-05
7.01936e-05
7.51241e-05
7.98113e-05
8.36422e-05
8.61742e-05
8.71599e-05
8.65332e-05
8.44579e-05
8.17549e-05
7.94979e-05
7.65021e-05
6.9191e-05
5.70329e-05
4.37403e-05
3.26376e-05
2.50018e-05
2.04012e-05
1.82047e-05
1.86988e-05
2.3545e-05
3.59279e-05
4.97216e-05
2.71223e-05
7.53395e-06
1.15534e-06
7.46093e-07
6.94183e-06
2.23997e-05
4.93916e-05
6.05493e-05
6.14121e-05
5.9604e-05
5.87815e-05
5.99927e-05
6.32235e-05
6.78965e-05
7.31957e-05
7.829e-05
8.24756e-05
8.52371e-05
8.63027e-05
8.55951e-05
8.33235e-05
8.02245e-05
7.7181e-05
7.34902e-05
6.70326e-05
5.77947e-05
4.57929e-05
3.40849e-05
2.58225e-05
2.09112e-05
1.86029e-05
1.90339e-05
2.3835e-05
3.62188e-05
5.01091e-05
2.74443e-05
7.56181e-06
1.15695e-06
7.46791e-07
6.92406e-06
2.2328e-05
4.9274e-05
6.0043e-05
6.06562e-05
5.83592e-05
5.67157e-05
5.76169e-05
6.08228e-05
6.57568e-05
7.15048e-05
7.7113e-05
8.17678e-05
8.48781e-05
8.61432e-05
8.54905e-05
8.31418e-05
7.98477e-05
7.64005e-05
7.21204e-05
6.58309e-05
5.92189e-05
4.89014e-05
3.70963e-05
2.77719e-05
2.16703e-05
1.89798e-05
1.94192e-05
2.43051e-05
3.62165e-05
4.99385e-05
2.95655e-05
7.80644e-06
1.23206e-06
7.5439e-07
6.92282e-06
2.22737e-05
4.90743e-05
5.95122e-05
5.94784e-05
5.68572e-05
5.50445e-05
5.55183e-05
5.86312e-05
6.38497e-05
7.01743e-05
7.65053e-05
8.18751e-05
8.55716e-05
8.72111e-05
8.67047e-05
8.43284e-05
8.07853e-05
7.67021e-05
7.19376e-05
6.76588e-05
6.00869e-05
4.883e-05
3.88321e-05
3.05842e-05
2.37702e-05
1.99639e-05
1.98025e-05
2.36264e-05
3.41297e-05
5.01557e-05
2.94986e-05
7.79559e-06
1.2861e-06
7.62398e-07
6.9393e-06
2.23119e-05
4.89726e-05
5.91053e-05
5.86738e-05
5.5606e-05
5.3359e-05
5.34779e-05
5.6512e-05
6.19262e-05
6.87418e-05
7.57799e-05
8.19213e-05
8.63045e-05
8.84005e-05
8.80429e-05
8.55626e-05
8.18928e-05
7.78364e-05
7.2832e-05
6.69573e-05
5.71389e-05
4.63423e-05
3.77646e-05
3.0536e-05
2.48242e-05
2.10562e-05
2.03145e-05
2.47382e-05
3.78188e-05
5.23526e-05
2.8782e-05
7.83723e-06
1.28899e-06
7.68767e-07
6.956e-06
2.23445e-05
4.89119e-05
5.88899e-05
5.83065e-05
5.43489e-05
5.13595e-05
5.13106e-05
5.42479e-05
5.97197e-05
6.6867e-05
7.44932e-05
8.13283e-05
8.63369e-05
8.88204e-05
8.85325e-05
8.58564e-05
8.18754e-05
7.76019e-05
7.22393e-05
6.45122e-05
5.42017e-05
4.40484e-05
3.58251e-05
2.93142e-05
2.45604e-05
2.18214e-05
2.21615e-05
2.77336e-05
4.12602e-05
5.30439e-05
2.79134e-05
7.74707e-06
1.23813e-06
7.69822e-07
6.96291e-06
2.24497e-05
4.8929e-05
5.87604e-05
5.79015e-05
5.37438e-05
5.02023e-05
4.94908e-05
5.18961e-05
5.70608e-05
6.43056e-05
7.23587e-05
7.97973e-05
8.53899e-05
8.82658e-05
8.81235e-05
8.53934e-05
8.11157e-05
7.6366e-05
7.0536e-05
6.23621e-05
5.25065e-05
4.27624e-05
3.45836e-05
2.85344e-05
2.45416e-05
2.26778e-05
2.36935e-05
2.9587e-05
4.26986e-05
5.35947e-05
2.80168e-05
7.75979e-06
1.21157e-06
7.67153e-07
6.92081e-06
2.22441e-05
4.88668e-05
5.85456e-05
5.74006e-05
5.34892e-05
4.96387e-05
4.77708e-05
4.93235e-05
5.42783e-05
6.1446e-05
6.98009e-05
7.78882e-05
8.42113e-05
8.76299e-05
8.77167e-05
8.49064e-05
8.02147e-05
7.50711e-05
6.91471e-05
6.19397e-05
5.29322e-05
4.33523e-05
3.51513e-05
2.88543e-05
2.48301e-05
2.31719e-05
2.44611e-05
3.0446e-05
4.33892e-05
5.41464e-05
2.83415e-05
7.79955e-06
1.21397e-06
7.63628e-07
6.91716e-06
2.22488e-05
4.87031e-05
5.86508e-05
5.75971e-05
5.33806e-05
4.94672e-05
4.73023e-05
4.74921e-05
5.12701e-05
5.83938e-05
6.70002e-05
7.57852e-05
8.30473e-05
8.73412e-05
8.79708e-05
8.52451e-05
8.03769e-05
7.52819e-05
7.05358e-05
6.30629e-05
5.3428e-05
4.45146e-05
3.6639e-05
3.01468e-05
2.54882e-05
2.34891e-05
2.48767e-05
3.08379e-05
4.32143e-05
5.46615e-05
2.99675e-05
8.00422e-06
1.27583e-06
7.61734e-07
6.90194e-06
2.21332e-05
4.85313e-05
5.87801e-05
5.79969e-05
5.37125e-05
4.94913e-05
4.70776e-05
4.70628e-05
4.9332e-05
5.49447e-05
6.37537e-05
7.31958e-05
8.1534e-05
8.69201e-05
8.83963e-05
8.62412e-05
8.16879e-05
7.65133e-05
7.14379e-05
6.32856e-05
5.35749e-05
4.50683e-05
3.7518e-05
3.11955e-05
2.6645e-05
2.4251e-05
2.49015e-05
3.06166e-05
4.3758e-05
5.5512e-05
2.95196e-05
8.00601e-06
1.29745e-06
7.58229e-07
6.90919e-06
2.22291e-05
4.84922e-05
5.88608e-05
5.85463e-05
5.47386e-05
5.0503e-05
4.75472e-05
4.66351e-05
4.81896e-05
5.20939e-05
5.93414e-05
6.92949e-05
7.84783e-05
8.49675e-05
8.73384e-05
8.57025e-05
8.15235e-05
7.65721e-05
7.09675e-05
6.28655e-05
5.3408e-05
4.4525e-05
3.6851e-05
3.08578e-05
2.67871e-05
2.49188e-05
2.61931e-05
3.27249e-05
4.63009e-05
5.61723e-05
2.92168e-05
8.02498e-06
1.28713e-06
7.45249e-07
6.85643e-06
2.20078e-05
4.81198e-05
5.88562e-05
5.896e-05
5.54552e-05
5.13848e-05
4.82038e-05
4.66246e-05
4.71253e-05
5.00118e-05
5.51855e-05
6.35671e-05
7.36863e-05
8.11787e-05
8.43816e-05
8.31973e-05
7.92515e-05
7.46268e-05
6.93742e-05
6.20736e-05
5.32576e-05
4.43706e-05
3.65337e-05
3.06409e-05
2.69732e-05
2.56312e-05
2.73908e-05
3.40895e-05
4.70462e-05
5.63352e-05
2.9491e-05
8.06259e-06
1.27486e-06
7.30546e-07
6.81765e-06
2.1883e-05
4.7933e-05
5.90988e-05
5.98258e-05
5.69588e-05
5.32757e-05
4.98295e-05
4.7289e-05
4.65527e-05
4.8184e-05
5.24299e-05
5.86961e-05
6.71437e-05
7.5847e-05
8.03001e-05
7.96187e-05
7.59193e-05
7.26755e-05
6.86847e-05
6.13943e-05
5.32225e-05
4.52617e-05
3.75794e-05
3.13586e-05
2.74191e-05
2.60522e-05
2.7871e-05
3.4576e-05
4.7439e-05
5.66943e-05
2.99222e-05
8.14916e-06
1.28229e-06
7.19812e-07
6.7686e-06
2.17699e-05
4.77918e-05
5.93479e-05
6.06358e-05
5.85089e-05
5.52449e-05
5.19233e-05
4.92034e-05
4.74355e-05
4.73245e-05
4.9644e-05
5.49644e-05
6.24611e-05
7.03753e-05
7.61607e-05
7.7099e-05
7.44583e-05
7.22489e-05
6.70054e-05
5.96557e-05
5.3676e-05
4.73545e-05
4.04766e-05
3.36218e-05
2.85054e-05
2.65718e-05
2.83582e-05
3.44387e-05
4.59957e-05
5.69439e-05
3.19987e-05
8.37498e-06
1.37249e-06
7.10394e-07
6.72416e-06
2.16194e-05
4.74962e-05
5.97122e-05
6.18569e-05
6.03688e-05
5.74457e-05
5.43868e-05
5.1654e-05
4.93778e-05
4.81745e-05
4.88293e-05
5.20473e-05
5.80404e-05
6.58156e-05
7.24901e-05
7.50867e-05
7.32382e-05
7.09426e-05
6.5171e-05
5.78355e-05
5.27055e-05
4.76518e-05
4.18968e-05
3.5892e-05
3.06738e-05
2.75613e-05
2.78137e-05
3.34439e-05
4.68883e-05
5.84272e-05
3.09117e-05
8.35058e-06
1.40093e-06
6.99062e-07
6.68169e-06
2.14752e-05
4.72056e-05
5.99132e-05
6.27707e-05
6.20032e-05
5.97905e-05
5.72486e-05
5.45552e-05
5.18659e-05
4.98353e-05
4.91682e-05
5.06483e-05
5.47247e-05
6.09118e-05
6.75871e-05
7.16214e-05
7.10325e-05
6.80774e-05
6.19346e-05
5.50695e-05
5.00327e-05
4.53298e-05
4.04972e-05
3.5459e-05
3.09102e-05
2.83543e-05
2.96949e-05
3.73175e-05
5.19613e-05
5.9195e-05
3.05277e-05
8.37409e-06
1.39475e-06
6.75303e-07
6.58344e-06
2.10288e-05
4.65781e-05
6.00824e-05
6.37013e-05
6.36226e-05
6.19361e-05
5.93007e-05
5.63693e-05
5.39608e-05
5.19235e-05
5.03397e-05
5.01756e-05
5.22479e-05
5.66147e-05
6.2103e-05
6.63855e-05
6.71289e-05
6.43072e-05
5.8484e-05
5.19294e-05
4.65512e-05
4.21515e-05
3.81964e-05
3.44984e-05
3.13767e-05
3.00673e-05
3.26406e-05
4.15527e-05
5.53461e-05
5.90912e-05
2.93055e-05
8.31158e-06
1.32714e-06
6.50637e-07
6.48086e-06
2.06391e-05
4.61676e-05
6.03108e-05
6.43991e-05
6.45715e-05
6.30344e-05
6.09286e-05
5.86942e-05
5.61281e-05
5.35981e-05
5.1855e-05
5.103e-05
5.16063e-05
5.38256e-05
5.73483e-05
6.11668e-05
6.30995e-05
6.16201e-05
5.65721e-05
4.99892e-05
4.40576e-05
3.94803e-05
3.61482e-05
3.366e-05
3.19618e-05
3.19837e-05
3.5341e-05
4.41251e-05
5.66586e-05
5.94078e-05
2.94708e-05
8.32936e-06
1.30212e-06
6.2318e-07
6.32271e-06
2.00296e-05
4.55288e-05
6.0428e-05
6.48305e-05
6.5084e-05
6.3647e-05
6.18027e-05
5.97455e-05
5.7679e-05
5.56984e-05
5.38061e-05
5.2462e-05
5.20263e-05
5.2746e-05
5.46443e-05
5.71934e-05
6.0224e-05
6.02079e-05
5.51639e-05
4.90078e-05
4.3285e-05
3.84452e-05
3.50264e-05
3.29004e-05
3.19551e-05
3.26771e-05
3.64959e-05
4.49756e-05
5.68115e-05
5.98886e-05
2.98258e-05
8.36669e-06
1.30393e-06
6.07446e-07
6.19659e-06
1.96546e-05
4.49026e-05
5.97276e-05
6.42025e-05
6.45311e-05
6.32458e-05
6.14444e-05
5.97609e-05
5.84125e-05
5.71161e-05
5.57852e-05
5.46873e-05
5.42139e-05
5.44038e-05
5.50275e-05
5.6438e-05
6.03041e-05
6.00051e-05
5.43574e-05
4.95455e-05
4.47026e-05
3.98399e-05
3.56493e-05
3.28745e-05
3.18734e-05
3.29501e-05
3.7059e-05
4.56945e-05
5.69857e-05
6.05278e-05
3.1924e-05
8.68198e-06
1.386e-06
6.0629e-07