/*--------------------------------*- C++ -*----------------------------------*\
| =========                 |                                                 |
| \\      /  F ield         | OpenFOAM: The Open Source CFD Toolbox           |
|  \\    /   O peration     | Version:  2.0.x                                 |
|   \\  /    A nd           | Web:      www.OpenFOAM.org                      |
|    \\/     M anipulation  |                                                 |
\*---------------------------------------------------------------------------*/
FoamFile
{
    version     2.0;
    format      ascii;
    class       volScalarField;
    location    "1000";
    object      mut;
}
// * * * * * * * * * * * * * * * * * * * * * * * * * * * * * * * * * * * * * //

dimensions      [1 -1 -1 0 0 0 0];

internalField   nonuniform List<scalar> 
78750
(
7.49614e-08
1.33928e-05
1.63156e-05
2.10057e-05
2.60828e-05
2.81559e-05
2.67073e-05
2.42759e-05
2.28369e-05
2.17201e-05
2.1218e-05
2.10996e-05
2.143e-05
2.17267e-05
2.20603e-05
2.32262e-05
2.4577e-05
2.55531e-05
2.60762e-05
2.74624e-05
2.67209e-05
2.68808e-05
2.97867e-05
2.99232e-05
2.95001e-05
2.9608e-05
2.9094e-05
2.79289e-05
2.61457e-05
2.49736e-05
2.34445e-05
2.11444e-05
1.88177e-05
1.56625e-05
1.36676e-07
5.44481e-08
1.33365e-05
2.03672e-05
1.00529e-05
1.02037e-05
1.29341e-05
1.54558e-05
2.03782e-05
2.57574e-05
3.20649e-05
3.78781e-05
3.96342e-05
4.23176e-05
4.59903e-05
4.75145e-05
4.86832e-05
4.65773e-05
4.77818e-05
5.11807e-05
5.38801e-05
5.81298e-05
6.13155e-05
6.10059e-05
5.94575e-05
5.64164e-05
5.34842e-05
4.09224e-05
4.22942e-05
4.18734e-05
3.21814e-05
2.89891e-05
2.46512e-05
2.16196e-05
2.14669e-05
3.08803e-07
1.19492e-08
4.42187e-06
4.94312e-06
6.45115e-06
9.45105e-06
1.44873e-05
2.31652e-05
3.67481e-05
5.23984e-05
6.19117e-05
6.666e-05
6.96122e-05
7.09647e-05
6.97363e-05
6.71264e-05
6.56811e-05
6.78823e-05
6.9176e-05
6.66462e-05
6.35485e-05
6.0177e-05
5.69126e-05
5.48399e-05
5.28735e-05
3.93402e-05
4.10798e-05
4.82518e-05
3.64206e-05
3.38185e-05
3.09362e-05
2.59362e-05
2.25054e-05
2.28779e-05
2.86889e-05
4.48493e-07
1.58721e-08
3.89483e-06
7.16996e-06
1.24948e-05
2.24111e-05
3.89729e-05
5.73659e-05
7.03865e-05
7.71946e-05
8.03988e-05
8.24715e-05
8.23845e-05
8.15189e-05
7.87903e-05
7.22806e-05
6.62273e-05
6.09677e-05
5.59669e-05
5.16983e-05
4.80315e-05
4.554e-05
4.46103e-05
4.26431e-05
3.44082e-05
3.80865e-05
4.38516e-05
3.68368e-05
3.4719e-05
2.9699e-05
2.54705e-05
2.25132e-05
2.14597e-05
2.64001e-05
2.47187e-05
4.93328e-07
3.73885e-08
4.11174e-06
9.53473e-06
1.93033e-05
3.44224e-05
5.01064e-05
6.20998e-05
7.06238e-05
7.57821e-05
7.67691e-05
7.51902e-05
7.21493e-05
6.63903e-05
6.19876e-05
6.03141e-05
5.66031e-05
5.10058e-05
4.58614e-05
4.18511e-05
3.95419e-05
3.87889e-05
3.77257e-05
3.54093e-05
4.15287e-05
4.74415e-05
4.195e-05
3.82369e-05
3.3193e-05
2.80592e-05
2.33364e-05
1.97732e-05
1.94666e-05
2.76075e-05
2.01732e-05
4.89667e-07
7.31129e-08
4.97822e-06
1.26446e-05
2.69232e-05
4.72465e-05
6.46483e-05
7.48336e-05
7.98248e-05
8.13456e-05
8.00035e-05
7.69104e-05
7.19573e-05
6.43694e-05
5.60532e-05
4.92791e-05
4.38669e-05
3.98176e-05
3.69041e-05
3.45734e-05
3.25473e-05
3.18226e-05
3.39531e-05
4.32685e-05
5.26689e-05
5.06347e-05
4.6401e-05
4.03091e-05
3.35328e-05
2.6915e-05
2.14511e-05
1.81955e-05
1.96729e-05
3.25758e-05
1.55692e-05
4.54404e-07
9.49956e-08
5.13272e-06
1.32755e-05
2.84199e-05
4.89737e-05
6.50452e-05
7.37094e-05
7.72479e-05
7.70062e-05
7.3333e-05
6.67043e-05
5.85741e-05
5.30705e-05
4.93467e-05
4.5007e-05
4.10236e-05
3.78448e-05
3.51356e-05
3.28139e-05
3.09579e-05
2.99665e-05
3.08645e-05
3.72921e-05
4.36697e-05
4.41166e-05
4.43884e-05
4.06041e-05
3.40974e-05
2.67649e-05
2.04936e-05
1.74777e-05
2.01006e-05
3.59144e-05
1.3413e-05
4.29798e-07
1.2572e-07
5.51365e-06
1.49259e-05
3.35492e-05
5.70514e-05
7.1742e-05
7.80936e-05
7.97158e-05
7.79707e-05
7.32284e-05
6.55496e-05
5.77665e-05
5.16629e-05
4.65646e-05
4.2623e-05
3.9486e-05
3.68691e-05
3.45625e-05
3.21397e-05
2.94349e-05
2.75439e-05
3.13662e-05
3.98395e-05
4.20967e-05
4.22994e-05
4.27888e-05
4.04818e-05
3.4544e-05
2.70533e-05
2.07572e-05
1.79444e-05
2.16721e-05
3.90156e-05
1.18288e-05
4.26766e-07
1.56156e-07
5.6953e-06
1.5544e-05
3.49264e-05
5.81408e-05
7.17656e-05
7.70412e-05
7.69518e-05
7.14633e-05
6.42045e-05
5.8688e-05
5.44118e-05
4.96481e-05
4.52563e-05
4.19595e-05
3.93977e-05
3.73389e-05
3.5327e-05
3.29357e-05
3.00869e-05
2.78969e-05
3.02542e-05
3.4863e-05
3.57456e-05
3.75029e-05
3.95957e-05
3.84866e-05
3.34373e-05
2.65573e-05
2.08309e-05
1.87073e-05
2.31349e-05
3.99827e-05
1.07832e-05
4.25964e-07
1.87526e-07
6.05072e-06
1.70065e-05
3.90557e-05
6.30556e-05
7.47879e-05
7.77873e-05
7.54185e-05
7.02028e-05
6.38843e-05
5.78901e-05
5.2481e-05
4.78615e-05
4.4662e-05
4.23227e-05
4.037e-05
3.84408e-05
3.61872e-05
3.34057e-05
3.03817e-05
2.83072e-05
2.95045e-05
3.13252e-05
3.15859e-05
3.36436e-05
3.58488e-05
3.544e-05
3.14865e-05
2.57402e-05
2.09525e-05
1.94439e-05
2.44721e-05
3.9853e-05
1.00165e-05
4.27976e-07
2.13304e-07
6.23167e-06
1.7723e-05
4.07021e-05
6.40681e-05
7.45623e-05
7.65214e-05
7.34022e-05
6.74816e-05
6.09061e-05
5.58297e-05
5.21527e-05
4.90447e-05
4.61995e-05
4.38464e-05
4.18722e-05
3.99314e-05
3.74514e-05
3.4338e-05
3.09882e-05
2.81406e-05
2.67455e-05
2.78934e-05
2.94933e-05
3.04519e-05
3.20205e-05
3.20556e-05
2.92399e-05
2.46352e-05
2.06321e-05
1.9677e-05
2.50182e-05
3.92812e-05
9.48167e-06
4.29945e-07
2.26264e-07
6.38784e-06
1.82235e-05
4.17803e-05
6.48538e-05
7.47369e-05
7.63277e-05
7.35005e-05
6.86152e-05
6.31657e-05
5.78873e-05
5.34762e-05
5.01156e-05
4.74984e-05
4.53634e-05
4.34936e-05
4.14577e-05
3.8757e-05
3.52521e-05
3.135e-05
2.78445e-05
2.55741e-05
2.53843e-05
2.6069e-05
2.70385e-05
2.83706e-05
2.83503e-05
2.64453e-05
2.30365e-05
2.00642e-05
1.97693e-05
2.54432e-05
3.86227e-05
9.09704e-06
4.33951e-07
2.28553e-07
6.40307e-06
1.8167e-05
4.1064e-05
6.33546e-05
7.30624e-05
7.48527e-05
7.25771e-05
6.85073e-05
6.40292e-05
5.9795e-05
5.58913e-05
5.23374e-05
4.91928e-05
4.64388e-05
4.40363e-05
4.19046e-05
3.97009e-05
3.69236e-05
3.33951e-05
2.9573e-05
2.63558e-05
2.49469e-05
2.417e-05
2.36821e-05
2.43882e-05
2.47419e-05
2.36428e-05
2.13169e-05
1.91717e-05
1.93818e-05
2.54025e-05
3.78977e-05
8.83195e-06
4.40302e-07
2.26287e-07
6.38017e-06
1.81702e-05
4.10942e-05
6.29402e-05
7.2417e-05
7.46778e-05
7.34005e-05
7.04436e-05
6.67782e-05
6.28999e-05
5.8979e-05
5.51287e-05
5.14531e-05
4.80541e-05
4.49936e-05
4.22909e-05
3.98472e-05
3.7308e-05
3.4293e-05
3.07865e-05
2.74309e-05
2.5837e-05
2.40186e-05
2.22235e-05
2.20308e-05
2.18002e-05
2.08544e-05
1.92819e-05
1.80292e-05
1.88867e-05
2.53404e-05
3.71662e-05
8.65302e-06
4.53072e-07
2.2399e-07
6.33316e-06
1.77851e-05
3.99192e-05
6.17217e-05
7.19533e-05
7.50603e-05
7.45222e-05
7.20699e-05
6.87475e-05
6.51111e-05
6.13905e-05
5.76727e-05
5.3982e-05
5.0343e-05
4.68267e-05
4.35263e-05
4.05129e-05
3.76662e-05
3.46741e-05
3.13329e-05
2.81045e-05
2.68635e-05
2.4579e-05
2.15812e-05
2.05897e-05
1.99045e-05
1.88751e-05
1.75582e-05
1.67002e-05
1.79552e-05
2.47625e-05
3.64883e-05
8.52448e-06
4.7139e-07
2.2358e-07
6.28871e-06
1.76058e-05
3.93958e-05
6.14421e-05
7.22825e-05
7.60036e-05
7.61157e-05
7.42986e-05
7.14985e-05
6.82019e-05
6.46395e-05
6.09152e-05
5.71036e-05
5.32473e-05
4.93818e-05
4.55676e-05
4.19106e-05
3.84923e-05
3.52142e-05
3.1894e-05
2.84722e-05
2.54245e-05
2.44998e-05
2.25287e-05
1.97413e-05
1.85833e-05
1.74024e-05
1.6119e-05
1.55057e-05
1.70456e-05
2.42008e-05
3.573e-05
8.35249e-06
4.87816e-07
2.23683e-07
6.25664e-06
1.73732e-05
3.87842e-05
6.09885e-05
7.25406e-05
7.69479e-05
7.76207e-05
7.62326e-05
7.3773e-05
7.07993e-05
6.75393e-05
6.40572e-05
6.03856e-05
5.65474e-05
5.2561e-05
4.84642e-05
4.43323e-05
4.02929e-05
3.6375e-05
3.25106e-05
2.8742e-05
2.55273e-05
2.46618e-05
2.24698e-05
1.90667e-05
1.73721e-05
1.61024e-05
1.49292e-05
1.44888e-05
1.62616e-05
2.36731e-05
3.51182e-05
8.21811e-06
5.03165e-07
2.26322e-07
6.24014e-06
1.73626e-05
3.87478e-05
6.10287e-05
7.28776e-05
7.76815e-05
7.87902e-05
7.78204e-05
7.57332e-05
7.30711e-05
7.00716e-05
6.68222e-05
6.33348e-05
5.96276e-05
5.56897e-05
5.15137e-05
4.71296e-05
4.26459e-05
3.81924e-05
3.3777e-05
2.9492e-05
2.58745e-05
2.46677e-05
2.20516e-05
1.84152e-05
1.66225e-05
1.51923e-05
1.40793e-05
1.37393e-05
1.56322e-05
2.31062e-05
3.45073e-05
8.08507e-06
5.17313e-07
2.28878e-07
6.20787e-06
1.71758e-05
3.83288e-05
6.08104e-05
7.29707e-05
7.80593e-05
7.94454e-05
7.87009e-05
7.68573e-05
7.44589e-05
7.17659e-05
6.8868e-05
6.57493e-05
6.23956e-05
5.87552e-05
5.47715e-05
5.04218e-05
4.57541e-05
4.09225e-05
3.59913e-05
3.10221e-05
2.65369e-05
2.4665e-05
2.28419e-05
1.85727e-05
1.56959e-05
1.42707e-05
1.32436e-05
1.30405e-05
1.50103e-05
2.25573e-05
3.41329e-05
8.00081e-06
5.33005e-07
2.34584e-07
6.197e-06
1.71844e-05
3.83789e-05
6.08876e-05
7.32055e-05
7.84569e-05
8.00275e-05
7.94795e-05
7.78584e-05
7.56854e-05
7.32406e-05
7.06243e-05
6.78162e-05
6.47982e-05
6.15065e-05
5.78485e-05
5.37265e-05
4.91072e-05
4.41143e-05
3.89537e-05
3.38069e-05
2.88091e-05
2.39281e-05
2.20036e-05
1.91433e-05
1.54586e-05
1.37502e-05
1.26395e-05
1.24133e-05
1.43995e-05
2.20416e-05
3.38502e-05
7.92717e-06
5.50841e-07
2.42214e-07
6.2139e-06
1.72469e-05
3.85071e-05
6.10656e-05
7.35602e-05
7.90493e-05
8.08251e-05
8.03844e-05
7.88527e-05
7.67822e-05
7.44958e-05
7.21052e-05
6.95979e-05
6.69159e-05
6.39982e-05
6.0752e-05
5.70025e-05
5.25901e-05
4.74742e-05
4.17604e-05
3.56618e-05
2.96497e-05
2.46453e-05
2.25605e-05
1.90552e-05
1.50701e-05
1.3219e-05
1.21065e-05
1.19453e-05
1.3986e-05
2.18434e-05
3.36034e-05
7.83869e-06
5.63429e-07
2.51159e-07
6.23386e-06
1.73955e-05
3.89935e-05
6.15641e-05
7.39454e-05
7.9477e-05
8.13635e-05
8.10331e-05
7.96255e-05
7.76917e-05
7.5574e-05
7.34033e-05
7.1232e-05
6.88853e-05
6.61542e-05
6.31637e-05
5.97859e-05
5.56889e-05
5.0747e-05
4.50253e-05
3.86698e-05
3.21188e-05
2.6347e-05
2.3225e-05
1.87829e-05
1.45413e-05
1.25896e-05
1.15385e-05
1.15051e-05
1.37356e-05
2.20623e-05
3.3203e-05
7.71871e-06
5.66089e-07
2.6074e-07
6.26444e-06
1.75436e-05
3.9459e-05
6.2093e-05
7.43053e-05
7.97274e-05
8.15701e-05
8.12691e-05
7.99976e-05
7.82548e-05
7.63498e-05
7.43399e-05
7.21914e-05
7.01928e-05
6.84135e-05
6.60834e-05
6.28505e-05
5.87369e-05
5.39321e-05
4.83762e-05
4.18973e-05
3.4892e-05
2.8245e-05
2.37746e-05
1.90209e-05
1.4312e-05
1.19862e-05
1.10402e-05
1.1184e-05
1.37548e-05
2.25218e-05
3.26788e-05
7.63803e-06
5.65712e-07
2.69514e-07
6.2954e-06
1.77064e-05
3.99152e-05
6.2448e-05
7.43771e-05
7.9588e-05
8.12714e-05
8.09279e-05
7.97085e-05
7.81396e-05
7.65123e-05
7.47538e-05
7.30857e-05
7.16256e-05
7.00431e-05
6.8011e-05
6.53993e-05
6.20928e-05
5.74498e-05
5.17861e-05
4.54928e-05
3.84829e-05
3.11537e-05
2.3839e-05
1.93604e-05
1.5016e-05
1.16934e-05
1.06546e-05
1.09399e-05
1.34842e-05
2.22854e-05
3.26628e-05
7.59258e-06
5.69104e-07
2.78064e-07
6.32475e-06
1.78789e-05
4.04228e-05
6.28691e-05
7.44808e-05
7.9434e-05
8.09259e-05
8.05604e-05
7.93103e-05
7.77586e-05
7.60955e-05
7.48648e-05
7.41302e-05
7.31561e-05
7.16911e-05
6.97277e-05
6.72743e-05
6.42982e-05
6.06887e-05
5.56577e-05
4.90524e-05
4.15845e-05
3.35853e-05
2.5582e-05
2.08706e-05
1.58271e-05
1.17677e-05
1.03309e-05
1.05329e-05
1.31057e-05
2.18353e-05
3.28738e-05
7.60135e-06
5.83154e-07
2.87865e-07
6.36467e-06
1.80976e-05
4.10489e-05
6.3325e-05
7.44917e-05
7.91464e-05
8.04622e-05
8.00658e-05
7.88787e-05
7.74389e-05
7.62015e-05
7.53931e-05
7.49167e-05
7.42949e-05
7.32778e-05
7.18678e-05
6.97626e-05
6.67536e-05
6.30277e-05
5.87707e-05
5.31517e-05
4.53575e-05
3.6218e-05
2.73119e-05
2.23072e-05
1.66553e-05
1.19955e-05
1.02289e-05
1.0241e-05
1.27536e-05
2.165e-05
3.29479e-05
7.59695e-06
5.95461e-07
2.98568e-07
6.40678e-06
1.83061e-05
4.16175e-05
6.37024e-05
7.44147e-05
7.87363e-05
7.98184e-05
7.93156e-05
7.81485e-05
7.68421e-05
7.61894e-05
7.59945e-05
7.53857e-05
7.47398e-05
7.42071e-05
7.35437e-05
7.23395e-05
7.02491e-05
6.69836e-05
6.20406e-05
5.5619e-05
4.78509e-05
3.86246e-05
2.90928e-05
2.34813e-05
1.71895e-05
1.21195e-05
1.0164e-05
1.0112e-05
1.27135e-05
2.21072e-05
3.27626e-05
7.54817e-06
5.98143e-07
3.09754e-07
6.46326e-06
1.85573e-05
4.2206e-05
6.39669e-05
7.41758e-05
7.81395e-05
7.89565e-05
7.83562e-05
7.71409e-05
7.64359e-05
7.60368e-05
7.53648e-05
7.50488e-05
7.49549e-05
7.4747e-05
7.41156e-05
7.2866e-05
7.10806e-05
6.9e-05
6.6018e-05
6.04981e-05
5.15875e-05
4.08951e-05
3.05666e-05
2.41559e-05
1.735e-05
1.21751e-05
1.01337e-05
1.00973e-05
1.29172e-05
2.29161e-05
3.23147e-05
7.50436e-06
5.95784e-07
3.20119e-07
6.51024e-06
1.8789e-05
4.28387e-05
6.43252e-05
7.39819e-05
7.74945e-05
7.79285e-05
7.70007e-05
7.60944e-05
7.5375e-05
7.47554e-05
7.47366e-05
7.50825e-05
7.5499e-05
7.57035e-05
7.52848e-05
7.39867e-05
7.19228e-05
6.96575e-05
6.70161e-05
6.25366e-05
5.47333e-05
4.37623e-05
3.25134e-05
2.49744e-05
1.7553e-05
1.22469e-05
1.01435e-05
1.01959e-05
1.32573e-05
2.37616e-05
3.20264e-05
7.45936e-06
5.88159e-07
3.29661e-07
6.54978e-06
1.8991e-05
4.33877e-05
6.45577e-05
7.36685e-05
7.67471e-05
7.68696e-05
7.5802e-05
7.44996e-05
7.36706e-05
7.35075e-05
7.38864e-05
7.4608e-05
7.54089e-05
7.59513e-05
7.58042e-05
7.46479e-05
7.25793e-05
7.03133e-05
6.78365e-05
6.37648e-05
5.66336e-05
4.62374e-05
3.47185e-05
2.62574e-05
1.81166e-05
1.25034e-05
1.0237e-05
1.02628e-05
1.34298e-05
2.42625e-05
3.18748e-05
7.44975e-06
5.847e-07
3.3917e-07
6.58481e-06
1.91836e-05
4.3913e-05
6.47341e-05
7.32618e-05
7.58271e-05
7.55069e-05
7.42035e-05
7.29025e-05
7.22071e-05
7.22216e-05
7.28958e-05
7.40446e-05
7.52908e-05
7.62193e-05
7.63606e-05
7.53227e-05
7.31925e-05
7.08521e-05
6.84609e-05
6.46925e-05
5.815e-05
4.85258e-05
3.73392e-05
2.84487e-05
1.943e-05
1.30646e-05
1.04348e-05
1.03183e-05
1.34564e-05
2.43942e-05
3.22472e-05
7.48175e-06
5.85795e-07
3.49385e-07
6.6211e-06
1.93872e-05
4.44168e-05
6.48214e-05
7.27777e-05
7.48488e-05
7.41514e-05
7.26522e-05
7.13019e-05
7.06174e-05
7.0793e-05
7.17601e-05
7.32811e-05
7.49543e-05
7.62862e-05
7.67649e-05
7.58798e-05
7.37155e-05
7.13055e-05
6.89961e-05
6.54931e-05
5.9415e-05
5.04377e-05
3.9847e-05
3.14947e-05
2.1486e-05
1.39749e-05
1.07633e-05
1.04046e-05
1.34066e-05
2.39725e-05
3.34815e-05
7.5904e-06
6.04269e-07
3.60482e-07
6.66255e-06
1.95927e-05
4.48803e-05
6.48598e-05
7.22765e-05
7.39449e-05
7.29179e-05
7.1197e-05
6.98088e-05
6.91631e-05
6.95382e-05
7.08388e-05
7.274e-05
7.48339e-05
7.66056e-05
7.75061e-05
7.69535e-05
7.48692e-05
7.24082e-05
7.01314e-05
6.67742e-05
6.0848e-05
5.19962e-05
4.15664e-05
3.40397e-05
2.38598e-05
1.51818e-05
1.13072e-05
1.04911e-05
1.31286e-05
2.38056e-05
3.32941e-05
7.55018e-06
6.14197e-07
3.71315e-07
6.70713e-06
1.97834e-05
4.52331e-05
6.47485e-05
7.17365e-05
7.30792e-05
7.16803e-05
6.9738e-05
6.82441e-05
6.76158e-05
6.81796e-05
6.97879e-05
7.21248e-05
7.47114e-05
7.69579e-05
7.82359e-05
7.79872e-05
7.60635e-05
7.36085e-05
7.13522e-05
6.80896e-05
6.2333e-05
5.31661e-05
4.19659e-05
3.35428e-05
2.35818e-05
1.55616e-05
1.16301e-05
1.08146e-05
1.40724e-05
2.66446e-05
3.20548e-05
7.53354e-06
6.08651e-07
3.79654e-07
6.74061e-06
1.99249e-05
4.54938e-05
6.46239e-05
7.11778e-05
7.21048e-05
7.0575e-05
6.85231e-05
6.67831e-05
6.61328e-05
6.67045e-05
6.8419e-05
7.09906e-05
7.39381e-05
7.66247e-05
7.83346e-05
7.84049e-05
7.66572e-05
7.41846e-05
7.18049e-05
6.85155e-05
6.2743e-05
5.29371e-05
4.08104e-05
3.06984e-05
2.14206e-05
1.49e-05
1.18179e-05
1.16298e-05
1.57429e-05
2.95443e-05
3.04776e-05
7.38505e-06
5.75226e-07
3.85386e-07
6.75539e-06
2.00029e-05
4.56619e-05
6.44033e-05
7.05624e-05
7.1205e-05
6.94056e-05
6.70761e-05
6.5282e-05
6.45231e-05
6.50121e-05
6.67118e-05
6.93683e-05
7.25085e-05
7.54701e-05
7.74791e-05
7.78286e-05
7.6267e-05
7.37026e-05
7.0896e-05
6.70093e-05
6.09349e-05
5.18217e-05
4.12904e-05
3.00602e-05
2.0573e-05
1.4728e-05
1.20967e-05
1.22374e-05
1.65834e-05
3.0608e-05
3.06477e-05
7.39593e-06
5.61399e-07
3.889e-07
6.75371e-06
2.00391e-05
4.57183e-05
6.41349e-05
6.99461e-05
7.03082e-05
6.83593e-05
6.59336e-05
6.3988e-05
6.30754e-05
6.34127e-05
6.5003e-05
6.76392e-05
7.0882e-05
7.40703e-05
7.63922e-05
7.70726e-05
7.57644e-05
7.33362e-05
7.05191e-05
6.6616e-05
6.07743e-05
5.25051e-05
4.31462e-05
3.15568e-05
2.12811e-05
1.50635e-05
1.22358e-05
1.23268e-05
1.6722e-05
3.0908e-05
3.1034e-05
7.41695e-06
5.62301e-07
3.92246e-07
6.74405e-06
2.00569e-05
4.57381e-05
6.38268e-05
6.93462e-05
6.95511e-05
6.75939e-05
6.5098e-05
6.30438e-05
6.19644e-05
6.21016e-05
6.35179e-05
6.60729e-05
6.93883e-05
7.28296e-05
7.55549e-05
7.67072e-05
7.58286e-05
7.36335e-05
7.09975e-05
6.71985e-05
6.1251e-05
5.30999e-05
4.52027e-05
3.42078e-05
2.31987e-05
1.59254e-05
1.25e-05
1.25018e-05
1.6915e-05
3.08418e-05
3.27427e-05
7.57699e-06
5.84808e-07
3.96166e-07
6.74104e-06
2.00981e-05
4.5789e-05
6.35062e-05
6.88749e-05
6.91202e-05
6.71269e-05
6.45478e-05
6.24072e-05
6.11821e-05
6.10906e-05
6.22677e-05
6.46426e-05
6.79362e-05
7.15877e-05
7.47473e-05
7.64694e-05
7.61695e-05
7.43289e-05
7.18432e-05
6.81665e-05
6.2204e-05
5.37288e-05
4.57207e-05
3.49472e-05
2.44669e-05
1.73892e-05
1.32935e-05
1.26696e-05
1.68095e-05
3.10542e-05
3.23629e-05
7.58225e-06
5.89669e-07
3.98621e-07
6.73656e-06
2.01163e-05
4.56802e-05
6.31785e-05
6.84744e-05
6.85636e-05
6.65438e-05
6.4077e-05
6.19488e-05
6.058e-05
6.01805e-05
6.10272e-05
6.31019e-05
6.61243e-05
6.9773e-05
7.3212e-05
7.54244e-05
7.5659e-05
7.41058e-05
7.16816e-05
6.80184e-05
6.21326e-05
5.36383e-05
4.47619e-05
3.39387e-05
2.40828e-05
1.75407e-05
1.38415e-05
1.33793e-05
1.79341e-05
3.29521e-05
3.19512e-05
7.56229e-06
5.8137e-07
3.99784e-07
6.71513e-06
2.00705e-05
4.55258e-05
6.28778e-05
6.79468e-05
6.80352e-05
6.61755e-05
6.38394e-05
6.18792e-05
6.04438e-05
5.95896e-05
5.95425e-05
6.09099e-05
6.37997e-05
6.7337e-05
7.08219e-05
7.33803e-05
7.40907e-05
7.28495e-05
7.04494e-05
6.66405e-05
6.0831e-05
5.30299e-05
4.50902e-05
3.45429e-05
2.44719e-05
1.77922e-05
1.41522e-05
1.3799e-05
1.8373e-05
3.3319e-05
3.22801e-05
7.59793e-06
5.80815e-07
4.02017e-07
6.69825e-06
2.00577e-05
4.54577e-05
6.24994e-05
6.75227e-05
6.77358e-05
6.60452e-05
6.39036e-05
6.19383e-05
6.03129e-05
5.93326e-05
5.91228e-05
5.97896e-05
6.16796e-05
6.48425e-05
6.84653e-05
7.1381e-05
7.26283e-05
7.18419e-05
6.96969e-05
6.57902e-05
5.94117e-05
5.33726e-05
4.68293e-05
3.62057e-05
2.60467e-05
1.89296e-05
1.47598e-05
1.40038e-05
1.84996e-05
3.37761e-05
3.30196e-05
7.6851e-06
5.96623e-07
4.05176e-07
6.6917e-06
2.00358e-05
4.53788e-05
6.21474e-05
6.72344e-05
6.76302e-05
6.61366e-05
6.41432e-05
6.22479e-05
6.0608e-05
5.93971e-05
5.87762e-05
5.90199e-05
6.03112e-05
6.2836e-05
6.61966e-05
6.93889e-05
7.12288e-05
7.09971e-05
6.91334e-05
6.52878e-05
5.92966e-05
5.40038e-05
4.56713e-05
3.499e-05
2.62451e-05
1.96157e-05
1.54696e-05
1.46884e-05
1.95735e-05
3.61281e-05
3.17862e-05
7.64648e-06
5.99197e-07
4.05718e-07
6.67524e-06
2.0042e-05
4.51635e-05
6.18008e-05
6.69443e-05
6.75157e-05
6.624e-05
6.44158e-05
6.26578e-05
6.113e-05
5.98448e-05
5.88977e-05
5.84666e-05
5.88851e-05
6.06111e-05
6.35789e-05
6.6735e-05
6.89337e-05
6.92141e-05
6.78968e-05
6.46893e-05
5.88533e-05
5.18871e-05
4.20703e-05
3.23825e-05
2.50433e-05
1.94896e-05
1.612e-05
1.59628e-05
2.19307e-05
3.9384e-05
3.0772e-05
7.58573e-06
5.81352e-07
4.04181e-07
6.64645e-06
1.99387e-05
4.48928e-05
6.14361e-05
6.67059e-05
6.74721e-05
6.64047e-05
6.47648e-05
6.31341e-05
6.16588e-05
6.00964e-05
5.88386e-05
5.82479e-05
5.82364e-05
5.86231e-05
6.02576e-05
6.31838e-05
6.55679e-05
6.63025e-05
6.54919e-05
6.2668e-05
5.70257e-05
4.93423e-05
3.94928e-05
3.03841e-05
2.37782e-05
1.91698e-05
1.66642e-05
1.71932e-05
2.38075e-05
4.12006e-05
3.02943e-05
7.52987e-06
5.63777e-07
4.00379e-07
6.60752e-06
1.98069e-05
4.45312e-05
6.1057e-05
6.64698e-05
6.7436e-05
6.6591e-05
6.51562e-05
6.36573e-05
6.21697e-05
6.05659e-05
5.90876e-05
5.81183e-05
5.76886e-05
5.7832e-05
5.8259e-05
5.95893e-05
6.17149e-05
6.29983e-05
6.28897e-05
6.06825e-05
5.52641e-05
4.82055e-05
3.89119e-05
2.98622e-05
2.33192e-05
1.89477e-05
1.68538e-05
1.77604e-05
2.45933e-05
4.19276e-05
3.05584e-05
7.5461e-06
5.64454e-07
3.95048e-07
6.55534e-06
1.96223e-05
4.40913e-05
6.06429e-05
6.62509e-05
6.74637e-05
6.68838e-05
6.57087e-05
6.44307e-05
6.31435e-05
6.17947e-05
6.02735e-05
5.86485e-05
5.72933e-05
5.66069e-05
5.68667e-05
5.76315e-05
5.88091e-05
6.01299e-05
6.06444e-05
5.9118e-05
5.43149e-05
4.81743e-05
3.91395e-05
3.00437e-05
2.35833e-05
1.91701e-05
1.69905e-05
1.7939e-05
2.50918e-05
4.26836e-05
3.13783e-05
7.66992e-06
5.78036e-07
3.88431e-07
6.4956e-06
1.94016e-05
4.36094e-05
6.02527e-05
6.60807e-05
6.75356e-05
6.72071e-05
6.62894e-05
6.52631e-05
6.41687e-05
6.2989e-05
6.15558e-05
5.98724e-05
5.82147e-05
5.6819e-05
5.59616e-05
5.58883e-05
5.6629e-05
5.76775e-05
5.84575e-05
5.77324e-05
5.36613e-05
4.76753e-05
3.87155e-05
2.97775e-05
2.33818e-05
1.9091e-05
1.71231e-05
1.84081e-05
2.61407e-05
4.40542e-05
3.08419e-05
7.66001e-06
5.77963e-07
3.79812e-07
6.4239e-06
1.91489e-05
4.31112e-05
5.98706e-05
6.58704e-05
6.75119e-05
6.73863e-05
6.66966e-05
6.59697e-05
6.5289e-05
6.41206e-05
6.25903e-05
6.09867e-05
5.91171e-05
5.72727e-05
5.57563e-05
5.48197e-05
5.45391e-05
5.48177e-05
5.54296e-05
5.53812e-05
5.36082e-05
4.76219e-05
3.77163e-05
2.89376e-05
2.2742e-05
1.87953e-05
1.72954e-05
1.91749e-05
2.746e-05
4.49874e-05
3.10727e-05
7.70499e-06
5.73313e-07
3.7032e-07
6.34326e-06
1.88839e-05
4.26607e-05
5.95565e-05
6.56593e-05
6.73939e-05
6.74053e-05
6.68802e-05
6.63048e-05
6.56745e-05
6.48886e-05
6.37952e-05
6.22208e-05
6.01851e-05
5.79024e-05
5.58489e-05
5.43425e-05
5.31511e-05
5.25008e-05
5.27135e-05
5.31253e-05
5.30122e-05
4.76686e-05
3.81847e-05
2.95089e-05
2.28714e-05
1.89035e-05
1.74079e-05
1.91229e-05
2.73049e-05
4.50511e-05
3.14666e-05
7.74095e-06
5.74355e-07
3.62541e-07
6.27049e-06
1.86715e-05
4.23582e-05
5.93485e-05
6.54922e-05
6.72883e-05
6.73603e-05
6.69711e-05
6.65449e-05
6.62324e-05
6.57584e-05
6.48174e-05
6.33943e-05
6.13694e-05
5.88677e-05
5.62605e-05
5.41108e-05
5.25466e-05
5.14105e-05
5.08847e-05
5.11464e-05
5.30451e-05
4.96317e-05
4.04592e-05
3.16983e-05
2.40263e-05
1.92074e-05
1.73561e-05
1.91012e-05
2.74672e-05
4.50818e-05
3.35448e-05
8.00106e-06
6.03605e-07
3.60768e-07
6.22343e-06
1.8545e-05
4.22021e-05
5.92092e-05
6.52949e-05
6.71473e-05
6.72888e-05
6.70562e-05
6.68425e-05
6.66922e-05
6.63904e-05
6.57825e-05
6.46179e-05
6.27002e-05
6.00852e-05
5.71196e-05
5.44301e-05
5.25288e-05
5.12281e-05
5.04587e-05
5.05408e-05
5.35308e-05
5.11111e-05
4.25078e-05
3.487e-05
2.69543e-05
2.05165e-05
1.767e-05
1.88967e-05
2.59215e-05
4.27205e-05
3.51499e-05
8.14065e-06
6.47574e-07
3.61208e-07
6.19242e-06
1.84237e-05
4.20299e-05
5.90169e-05
6.51157e-05
6.69606e-05
6.71491e-05
6.70525e-05
6.70408e-05
6.71309e-05
6.70511e-05
6.65027e-05
6.53963e-05
6.35927e-05
6.10665e-05
5.80603e-05
5.51791e-05
5.28737e-05
5.1446e-05
5.09387e-05
5.10396e-05
5.397e-05
5.13284e-05
4.30053e-05
3.62093e-05
2.91641e-05
2.27192e-05
1.87037e-05
1.87298e-05
2.57244e-05
4.47195e-05
3.34875e-05
8.06704e-06
6.58158e-07
3.64791e-07
6.1995e-06
1.85272e-05
4.21661e-05
5.8922e-05
6.49076e-05
6.66759e-05
6.68548e-05
6.68004e-05
6.68808e-05
6.71005e-05
6.72375e-05
6.70425e-05
6.61559e-05
6.42647e-05
6.1401e-05
5.80366e-05
5.48894e-05
5.26959e-05
5.16805e-05
5.18109e-05
5.23242e-05
5.36987e-05
4.94178e-05
4.12384e-05
3.47293e-05
2.8516e-05
2.3112e-05
1.99275e-05
2.09819e-05
3.01938e-05
4.9025e-05
3.18408e-05
8.01223e-06
6.42853e-07
3.6585e-07
6.2011e-06
1.85706e-05
4.23487e-05
5.89056e-05
6.4603e-05
6.61358e-05
6.62189e-05
6.60907e-05
6.61692e-05
6.64821e-05
6.6752e-05
6.66257e-05
6.57464e-05
6.38132e-05
6.07511e-05
5.6987e-05
5.34446e-05
5.10193e-05
5.02422e-05
5.1118e-05
5.33679e-05
5.21409e-05
4.63712e-05
3.97237e-05
3.30663e-05
2.75056e-05
2.35481e-05
2.18465e-05
2.43548e-05
3.49916e-05
5.15476e-05
3.04324e-05
7.88031e-06
6.0289e-07
3.66201e-07
6.20922e-06
1.8685e-05
4.27299e-05
5.89387e-05
6.42181e-05
6.53901e-05
6.52824e-05
6.50121e-05
6.50248e-05
6.53254e-05
6.5572e-05
6.53737e-05
6.43582e-05
6.22289e-05
5.89356e-05
5.49234e-05
5.11732e-05
4.87038e-05
4.82053e-05
5.00282e-05
5.33829e-05
5.33895e-05
4.7993e-05
4.05338e-05
3.32288e-05
2.75796e-05
2.40716e-05
2.3147e-05
2.63201e-05
3.66653e-05
5.1994e-05
3.06837e-05
7.88793e-06
5.94424e-07
3.67546e-07
6.21362e-06
1.88668e-05
4.31652e-05
5.89874e-05
6.37466e-05
6.45494e-05
6.41648e-05
6.37147e-05
6.36395e-05
6.39459e-05
6.42926e-05
6.41647e-05
6.31209e-05
6.08332e-05
5.72823e-05
5.29812e-05
4.89682e-05
4.63893e-05
4.62536e-05
4.91458e-05
5.42586e-05
5.479e-05
5.00926e-05
4.38029e-05
3.58758e-05
2.91064e-05
2.49796e-05
2.39279e-05
2.69336e-05
3.71756e-05
5.24171e-05
3.11616e-05
7.93005e-06
6.03844e-07
3.75663e-07
6.25707e-06
1.91949e-05
4.38162e-05
5.89839e-05
6.33309e-05
6.38427e-05
6.33091e-05
6.2788e-05
6.26969e-05
6.30271e-05
6.34301e-05
6.33083e-05
6.21578e-05
5.96402e-05
5.57946e-05
5.12525e-05
4.71242e-05
4.44608e-05
4.44954e-05
5.00794e-05
5.47049e-05
5.38897e-05
5.34902e-05
5.01395e-05
4.2724e-05
3.35073e-05
2.68199e-05
2.47807e-05
2.786e-05
3.73522e-05
5.15746e-05
3.60436e-05
8.37723e-06
6.73851e-07
3.92907e-07
6.36075e-06
1.97233e-05
4.47216e-05
5.909e-05
6.30984e-05
6.33913e-05
6.27343e-05
6.21695e-05
6.20765e-05
6.24215e-05
6.28403e-05
6.27265e-05
6.14585e-05
5.86852e-05
5.45007e-05
4.96941e-05
4.55524e-05
4.31784e-05
4.36117e-05
4.95917e-05
5.45581e-05
5.47282e-05
5.63805e-05
5.51907e-05
4.93912e-05
4.02868e-05
3.1548e-05
2.66136e-05
2.70484e-05
3.53113e-05
5.29177e-05
3.49774e-05
8.39394e-06
7.03291e-07
4.12549e-07
6.51728e-06
2.0317e-05
4.51972e-05
5.91798e-05
6.27341e-05
6.28786e-05
6.21181e-05
6.15089e-05
6.14465e-05
6.18605e-05
6.23125e-05
6.21155e-05
6.05607e-05
5.74111e-05
5.29644e-05
4.81089e-05
4.4157e-05
4.22455e-05
4.29346e-05
4.72783e-05
5.15868e-05
5.40841e-05
5.67505e-05
5.59273e-05
5.01263e-05
4.13484e-05
3.32969e-05
2.9194e-05
3.17161e-05
4.41872e-05
5.81548e-05
3.3703e-05
8.34684e-06
6.94544e-07
4.24133e-07
6.62824e-06
2.07628e-05
4.60749e-05
5.91379e-05
6.23627e-05
6.22281e-05
6.12188e-05
6.04609e-05
6.0318e-05
6.06633e-05
6.09968e-05
6.05697e-05
5.86974e-05
5.52348e-05
5.07398e-05
4.60957e-05
4.23238e-05
4.06678e-05
4.20215e-05
4.42913e-05
4.67198e-05
5.02075e-05
5.25854e-05
5.18451e-05
4.73656e-05
4.0785e-05
3.54022e-05
3.42312e-05
3.97021e-05
5.23111e-05
5.94585e-05
3.04782e-05
7.98805e-06
6.06833e-07
4.25473e-07
6.70506e-06
2.10851e-05
4.64136e-05
5.9108e-05
6.18524e-05
6.1335e-05
6.00256e-05
5.90781e-05
5.88105e-05
5.90368e-05
5.91885e-05
5.84383e-05
5.61073e-05
5.22146e-05
4.767e-05
4.34617e-05
4.05229e-05
4.1036e-05
4.07742e-05
3.9434e-05
4.12764e-05
4.47646e-05
4.77354e-05
4.82291e-05
4.5745e-05
4.17929e-05
3.92319e-05
4.0744e-05
4.8519e-05
6.06739e-05
6.02858e-05
2.83319e-05
7.77908e-06
5.33949e-07
4.19968e-07
6.71688e-06
2.12282e-05
4.67764e-05
5.90795e-05
6.13742e-05
6.04615e-05
5.88576e-05
5.7722e-05
5.73203e-05
5.74245e-05
5.74332e-05
5.64686e-05
5.3842e-05
4.97566e-05
4.54533e-05
4.2169e-05
4.03007e-05
4.10317e-05
3.93202e-05
3.69466e-05
3.81891e-05
4.0656e-05
4.31212e-05
4.42483e-05
4.3973e-05
4.30386e-05
4.29696e-05
4.65506e-05
5.48286e-05
6.37626e-05
6.01881e-05
2.79687e-05
7.72642e-06
5.07073e-07
4.09083e-07
6.70067e-06
2.13088e-05
4.7127e-05
5.90647e-05
6.08943e-05
5.96242e-05
5.78017e-05
5.65234e-05
5.60328e-05
5.60787e-05
5.60449e-05
5.5011e-05
5.22324e-05
4.79581e-05
4.36274e-05
4.07183e-05
3.9673e-05
4.11366e-05
4.00933e-05
3.75025e-05
3.76809e-05
3.86933e-05
4.01769e-05
4.16809e-05
4.2505e-05
4.2937e-05
4.43115e-05
4.8535e-05
5.58823e-05
6.42545e-05
6.10909e-05
2.84371e-05
7.76783e-06
5.07355e-07
3.97758e-07
6.65234e-06
2.13312e-05
4.74625e-05
5.90717e-05
6.05049e-05
5.89794e-05
5.70274e-05
5.5659e-05
5.51172e-05
5.51439e-05
5.51253e-05
5.41029e-05
5.1199e-05
4.65812e-05
4.19208e-05
3.90168e-05
3.8552e-05
4.07735e-05
4.20133e-05
4.09316e-05
3.9859e-05
3.88468e-05
3.85442e-05
3.91128e-05
4.01494e-05
4.15724e-05
4.38937e-05
4.78239e-05
5.55423e-05
6.39677e-05
6.12709e-05
2.90804e-05
7.93058e-06
5.29708e-07
3.95218e-07
6.65626e-06
2.15838e-05
4.78869e-05
5.90642e-05
6.02197e-05
5.85768e-05
5.66065e-05
5.52288e-05
5.47089e-05
5.47845e-05
5.4845e-05
5.39249e-05
5.09646e-05
4.5937e-05
4.05832e-05
3.7268e-05
3.71544e-05
3.99382e-05
4.38959e-05
4.60688e-05
4.49454e-05
4.27763e-05
4.10337e-05
3.96047e-05
3.89988e-05
3.93521e-05
4.08914e-05
4.49296e-05
5.22499e-05
6.0804e-05
6.14514e-05
3.19165e-05
8.28263e-06
5.92223e-07
3.98705e-07
6.68282e-06
2.19054e-05
4.83498e-05
5.90756e-05
6.0141e-05
5.85425e-05
5.66299e-05
5.52859e-05
5.4816e-05
5.5033e-05
5.5334e-05
5.46064e-05
5.1664e-05
4.61028e-05
3.95759e-05
3.53052e-05
3.47031e-05
3.83936e-05
4.47522e-05
4.95502e-05
5.12354e-05
4.88797e-05
4.49337e-05
4.19955e-05
3.98296e-05
3.8574e-05
3.93521e-05
4.36342e-05
4.99431e-05
5.71509e-05
6.25274e-05
3.5244e-05
8.62289e-06
6.59407e-07
4.1083e-07
6.77198e-06
2.24477e-05
4.88486e-05
5.90645e-05
6.00969e-05
5.85898e-05
5.67581e-05
5.55359e-05
5.52056e-05
5.5581e-05
5.60938e-05
5.57079e-05
5.2926e-05
4.695e-05
3.9523e-05
3.37757e-05
3.23576e-05
3.60245e-05
4.24976e-05
4.87239e-05
5.36355e-05
5.52471e-05
5.21842e-05
4.57306e-05
4.0735e-05
3.88224e-05
3.93661e-05
4.06453e-05
4.51029e-05
5.66851e-05
6.51395e-05
3.4744e-05
8.76053e-06
6.81313e-07
4.24298e-07
6.90448e-06
2.29679e-05
4.91688e-05
5.90489e-05
6.02756e-05
5.89368e-05
5.71708e-05
5.60094e-05
5.57824e-05
5.63534e-05
5.71987e-05
5.73089e-05
5.50827e-05
4.90432e-05
4.0744e-05
3.34737e-05
3.08906e-05
3.29862e-05
3.81235e-05
4.4839e-05
5.08682e-05
5.45031e-05
5.38232e-05
4.95491e-05
4.35377e-05
3.86273e-05
3.66775e-05
3.97907e-05
4.98318e-05
6.34916e-05
6.57953e-05
3.36214e-05
8.69955e-06
6.73934e-07
4.26311e-07
6.95743e-06
2.32679e-05
4.92183e-05
5.89945e-05
6.03086e-05
5.89624e-05
5.71722e-05
5.60315e-05
5.5925e-05
5.66547e-05
5.77404e-05
5.83959e-05
5.71531e-05
5.21304e-05
4.32919e-05
3.41415e-05
3.01902e-05
3.07365e-05
3.28633e-05
3.76474e-05
4.47436e-05
4.98518e-05
5.04425e-05
4.71456e-05
4.23291e-05
3.89545e-05
3.93508e-05
4.54384e-05
5.6279e-05
6.67053e-05
6.47885e-05
3.09965e-05
8.38539e-06
5.97488e-07
4.19404e-07
6.97859e-06
2.32987e-05
4.90823e-05