/*--------------------------------*- C++ -*----------------------------------*\
| =========                 |                                                 |
| \\      /  F ield         | OpenFOAM: The Open Source CFD Toolbox           |
|  \\    /   O peration     | Version:  2.3.x                                 |
|   \\  /    A nd           | Web:      www.OpenFOAM.org                      |
|    \\/     M anipulation  |                                                 |
\*---------------------------------------------------------------------------*/
FoamFile
{
    version     2.0;
    format      ascii;
    class       volScalarField;
    location    "1000";
    object      omega;
}
// * * * * * * * * * * * * * * * * * * * * * * * * * * * * * * * * * * * * * //

dimensions      [0 0 -1 0 0 0 0];

internalField   nonuniform List<scalar> 
78750
(
349.314
15.2785
15.7414
15.9498
16.0943
16.2706
16.4477
16.6012
16.7358
16.8508
16.9473
17.0281
17.0941
17.1524
17.1877
17.2758
17.3587
17.4131
17.4404
17.4416
17.4391
17.4221
17.3973
17.3663
17.3295
17.2865
17.2368
17.1789
17.1144
17.0413
16.9547
16.8471
16.7119
16.4227
373.276
511.895
5.05255
5.40604
5.67338
6.02714
6.39975
6.75659
7.07605
7.33954
7.55363
7.72424
7.86039
7.96
8.03316
8.08436
8.08083
8.04254
7.99355
7.94345
7.8906
7.83622
7.7814
7.72605
7.67092
7.61657
7.56561
7.51736
7.46111
7.40112
7.33458
7.25407
7.1548
6.99761
6.68833
548.307
511.67
4.91458
5.58944
6.22968
6.8108
7.27783
7.61929
7.8582
8.02308
8.13229
8.19763
8.22599
8.22705
8.21383
8.17274
8.1173
8.05383
7.98447
7.90561
7.81767
7.72196
7.62646
7.52767
7.42992
7.33856
7.25341
7.18422
7.14558
7.13226
7.13551
7.13445
7.10784
6.97729
6.75759
548.864
511.732
5.45754
6.40318
7.09351
7.53564
7.80685
7.97391
8.08379
8.15898
8.21052
8.24362
8.26049
8.26036
8.24362
8.20753
8.15201
8.07758
7.98913
7.89076
7.7812
7.6584
7.51497
7.36577
7.21683
7.07008
6.94417
6.85602
6.80764
6.80347
6.82706
6.88223
6.92006
6.88765
6.7621
548.925
511.911
5.66608
6.58358
7.19791
7.59496
7.85864
8.04982
8.19485
8.30459
8.3832
8.43272
8.45446
8.45075
8.42073
8.36723
8.29202
8.19726
8.08599
7.95861
7.81715
7.66436
7.50418
7.33679
7.1625
6.98335
6.8197
6.69535
6.61456
6.58686
6.60731
6.68398
6.76642
6.78283
6.70762
548.821
512.07
5.94476
6.86163
7.45583
7.83012
8.0703
8.23251
8.34752
8.42872
8.48279
8.51329
8.52196
8.51111
8.47919
8.42758
8.35697
8.2689
8.16598
8.04797
7.91512
7.76743
7.60504
7.42825
7.23751
7.036
6.84552
6.69264
6.5761
6.50373
6.49645
6.54537
6.63883
6.68155
6.62744
548.723
512.148
5.98313
6.89452
7.48614
7.85691
8.10195
8.27873
8.41301
8.51537
8.59021
8.63943
8.66379
8.66377
8.64176
8.59524
8.52644
8.43662
8.32856
8.20447
8.06478
7.91025
7.74203
7.56054
7.36538
7.15618
6.94864
6.76543
6.61286
6.50658
6.45396
6.47073
6.55249
6.60602
6.57162
548.712
512.229
6.10791
7.04527
7.63891
8.00454
8.24269
8.41089
8.53494
8.62611
8.68997
8.72956
8.74655
8.74276
8.71808
8.67237
8.60534
8.51797
8.41287
8.29228
8.15848
8.01101
7.84915
7.67287
7.48274
7.27831
7.07354
6.88662
6.71409
6.56058
6.46173
6.44446
6.48942
6.54283
6.52905
548.762
512.313
6.18908
7.12838
7.72031
8.08311
8.3223
8.49487
8.62505
8.72346
8.79521
8.84273
8.86697
8.86746
8.84799
8.80235
8.735
8.64752
8.54177
8.41945
8.28064
8.12608
7.9561
7.77084
7.57136
7.35942
7.15265
6.96856
6.79969
6.64435
6.51976
6.45503
6.47137
6.5159
6.53214
548.877
512.388
6.29989
7.26557
7.85851
8.21198
8.44168
8.6062
8.72936
8.82165
8.88812
8.93137
8.95305
8.95355
8.93596
8.89577
8.83661
8.75813
8.6602
8.54245
8.40363
8.24588
8.06954
7.87505
7.66317
7.43586
7.21385
7.01813
6.84243
6.68506
6.55698
6.48026
6.47946
6.51903
6.54538
548.952
512.474
6.41298
7.38935
7.97405
8.31696
8.54039
8.70183
8.82383
8.91582
8.98242
9.02665
9.05026
9.05439
9.04311
9.01311
8.96558
8.89888
8.81204
8.7033
8.56995
8.41121
8.22959
8.02686
7.80362
7.56177
7.32202
7.10648
6.90993
6.73451
6.59412
6.50862
6.49945
6.53094
6.56728
549.019
512.554
6.52322
7.52054
8.09997
8.4328
8.6476
8.80194
8.91778
9.00349
9.06409
9.10331
9.12416
9.13011
9.12336
9.10103
9.06366
9.00931
8.9364
8.84133
8.72069
8.57197
8.39268
8.18255
7.94793
7.69412
7.44319
7.21566
7.00342
6.80801
6.6464
6.54326
6.52552
6.55681
6.60785
549.127
512.688
6.68434
7.68236
8.23606
8.54796
8.74934
8.89501
9.00336
9.08216
9.13681
9.17143
9.1906
9.19743
9.19378
9.17817
9.14985
9.10636
9.04549
8.96196
8.85277
8.71583
8.5481
8.34581
8.1054
7.83016
7.5596
7.31731
7.09421
6.88908
6.71465
6.59632
6.56966
6.60055
6.65825
549.187
512.818
6.81763
7.81064
8.34603
8.64255
8.83274
8.96941
9.06875
9.13869
9.18452
9.21218
9.22788
9.23661
9.23912
9.23443
9.21761
9.1867
9.13697
9.06333
8.96323
8.83502
8.67576
8.48128
8.24588
7.96627
7.66724
7.39157
7.1412
6.92274
6.75069
6.6432
6.62089
6.64725
6.69353
549.198
512.98
6.97083
7.94237
8.45032
8.72707
8.90433
9.03002
9.11939
9.17904
9.21446
9.23343
9.24682
9.2611
9.27547
9.28405
9.28236
9.26594
9.22922
9.16761
9.07922
8.96346
8.81848
8.641
8.4257
8.16665
7.87671
7.57535
7.26846
6.99902
6.79617
6.683
6.66444
6.69191
6.73965
549.272
513.099
7.06698
8.02129
8.51525
8.78187
8.95131
9.06917
9.14949
9.19916
9.22532
9.23742
9.24732
9.2644
9.28623
9.30865
9.32248
9.31996
9.29664
9.24757
9.17047
9.06528
8.93128
8.76711
8.57014
8.33676
8.07555
7.79378
7.48242
7.16357
6.90387
6.74817
6.71429
6.74111
6.7884
549.308
513.173
7.13435
8.08155
8.56842
8.83062
8.99502
9.1064
9.17876
9.21918
9.235
9.23722
9.24578
9.25985
9.28358
9.31113
9.33791
9.35733
9.35282
9.32123
9.25953
9.16693
9.04211
8.88319
8.68826
8.45887
8.20117
7.90984
7.58203
7.25218
6.98909
6.83265
6.78964
6.80539
6.83193
549.274
513.213
7.17372
8.12047
8.60754
8.87146
9.03613
9.14347
9.20839
9.2376
9.24077
9.23155
9.22584
9.23368
9.26018
9.29847
9.33733
9.36568
9.38143
9.37233
9.33163
9.26097
9.15817
9.02066
8.84572
8.63246
8.37809
8.06685
7.69463
7.30603
7.01212
6.87602
6.84414
6.84775
6.84826
549.271
513.263
7.21711
8.16348
8.65082
8.91767
9.08595
9.19419
9.25267
9.26886
9.25489
9.2253
9.20182
9.19936
9.21966
9.26173
9.314
9.35921
9.38603
9.39261
9.37748
9.33054
9.25401
9.1472
9.0087
8.83726
8.62674
8.35542
8.00437
7.58382
7.17963
6.94587
6.89212
6.89611
6.90181
549.393
513.306
7.24609
8.19171
8.68205
8.95394
9.12845
9.24333
9.30721
9.32245
9.29622
9.24696
9.19472
9.16285
9.16831
9.20581
9.26326
9.32288
9.36919
9.39295
9.38963
9.35955
9.29898
9.20976
9.09283
8.94889
8.77367
8.54931
8.25474
7.87655
7.44524
7.10806
6.97085
6.95229
6.95697
549.456
513.345
7.27354
8.21816
8.71157
8.98863
9.1691
9.29019
9.36053
9.38174
9.35806
9.29639
9.21634
9.14866
9.11355
9.12934
9.18418
9.25339
9.31798
9.36345
9.38146
9.36814
9.32216
9.24153
9.12805
8.98318
8.80394
8.57754
8.29341
7.95083
7.57612
7.26037
7.09162
7.03737
7.00826
549.409
513.364
7.28327
8.22973
8.72928
9.01391
9.20244
9.33188
9.4109
9.44074
9.42609
9.3705
9.2816
9.17744
9.09721
9.06163
9.08937
9.15611
9.23345
9.30195
9.34773
9.36297
9.34393
9.28831
9.1946
9.06071
8.87627
8.62939
8.31658
7.95756
7.59649
7.32201
7.16868
7.0965
7.03102
549.403
513.386
7.29438
8.24098
8.74674
9.03857
9.23476
9.37252
9.46068
9.50012
9.49528
9.44896
9.36662
9.25611
9.13402
9.04034
9.00288
9.03537
9.11056
9.19528
9.269
9.31858
9.33711
9.32289
9.27332
9.18417
9.04214
8.82962
8.53104
8.14404
7.73181
7.4097
7.23441
7.15793
7.09703
549.567
513.408
7.29817
8.24458
8.75712
9.05715
9.26184
9.40873
9.50685
9.55812
9.56413
9.52871
9.45578
9.35066
9.22113
9.08327
8.97597
8.93471
8.96881
9.04706
9.13386
9.20747
9.2553
9.27337
9.26109
9.21217
9.11951
8.9673
8.7342
8.39581
7.97452
7.58493
7.34354
7.23886
7.17623
549.672
513.426
7.29908
8.24486
8.76452
9.07289
9.28648
9.44301
9.55178
9.61499
9.63259
9.60949
9.54808
9.45229
9.32705
9.17992
9.02679
8.90397
8.85194
8.87928
8.96127
9.04893
9.11941
9.16215
9.17445
9.15411
9.08689
8.96016
8.75775
8.4701
8.10588
7.7372
7.47513
7.33747
7.23942
549.64
513.434
7.2987
8.24434
8.76501
9.08258
9.30557
9.4723
9.5925
9.66857
9.69945
9.69043
9.64283
9.55981
9.44501
9.30309
9.14174
8.97703
8.83653
8.76429
8.77755
8.86085
8.9516
9.02368
9.06616
9.07127
9.02955
8.92287
8.74352
8.47694
8.15113
7.8247
7.5736
7.41944
7.28701
549.635
513.433
7.28414
8.2343
8.76645
9.09194
9.3238
9.50025
9.63127
9.71959
9.76483
9.76923
9.73538
9.66576
9.56313
9.43069
9.27312
9.09886
8.92218
8.7654
8.67313
8.67477
8.75437
8.84949
8.92924
8.97822
8.97866
8.91425
8.76213
8.52779
8.23196
7.92105
7.66831
7.50181
7.35187
549.713
513.417
7.26686
8.22087
8.76248
9.09687
9.33805
9.52475
9.6671
9.768
9.82815
9.84642
9.82726
9.77204
9.683
9.56242
9.41323
9.24029
9.05335
8.86242
8.69063
8.57974
8.56151
8.63287
8.7357
8.82539
8.87473
8.86071
8.75775
8.56499
8.30415
8.01257
7.76536
7.59291
7.42939
549.767
513.398
7.24532
8.20468
8.7564
9.10119
9.35229
9.54931
9.70277
9.81562
9.88878
9.92106
9.91623
9.87523
9.80028
9.69329
9.55628
9.39208
9.20595
9.00468
8.79748
8.60754
8.47475
8.43654
8.5035
8.6171
8.71141
8.74817
8.70685
8.56366
8.34555
8.08548
7.84904
7.66782
7.4787
549.778
513.385
7.22797
8.19167
8.75362
9.10929
9.37062
9.57766
9.74139
9.86523
9.95019
9.99645
10.0041
9.97574
9.91308
9.81793
9.69199
9.53723
9.35686
9.15745
8.94212
8.7215
8.52037
8.38588
8.35728
8.41837
8.53372
8.61728
8.62461
8.54521
8.37251
8.14768
7.92845
7.75183
7.55923
549.91
513.383
7.21337
8.17855
8.75165
9.11999
9.39249
9.60985
9.78379
9.91814
10.0141
10.0717
10.0909
10.0736
10.0216
9.93656
9.81978
9.67283
9.49782
9.29884
9.0799
8.84677
8.61478
8.42081
8.31391
8.30896
8.38352
8.49945
8.56034
8.53342
8.40706
8.20808
8.00156
7.82927
7.63978
550.015
513.387
7.20274
8.17125
8.75753
9.13634
9.41876
9.64606
9.8301
9.97474
10.0812
10.1496
10.1794
10.1719
10.129
10.0522
9.94271
9.80194
9.63118
9.4327
9.21004
8.9658
8.71209
8.47673
8.30955
8.24502
8.27146
8.37066
8.48139
8.51594
8.43456
8.27303
8.0852
7.91171
7.7036
550.001
513.406
7.20122
8.17132
8.76583
9.15533
9.44953
9.68779
9.882
10.0365
10.1529
10.2312
10.2713
10.2733
10.2399
10.1709
10.0687
9.93458
9.76979
9.57586
9.3554
9.1063
8.83351
8.55967
8.3382
8.22339
8.21176
8.27421
8.37362
8.44788
8.43236
8.30742
8.14269
7.97482
7.74714
549.982
513.445
7.22045
8.18917
8.78402
9.17886
9.48298
9.73334
9.94012
10.1059
10.2321
10.3199
10.3701
10.3816
10.3567
10.2955
10.2
10.0716
9.91191
9.72259
9.50615
9.25934
8.98211
8.68814
8.42378
8.24903
8.1834
8.20712
8.29144
8.37998
8.40269
8.3324
8.19501
8.03326
7.79637
550.046
513.482
7.23183
8.19645
8.79476
9.19632
9.50985
9.77107
9.98921
10.1686
10.3106
10.4139
10.4771
10.4993
10.4829
10.4303
10.3414
10.218
10.0622
9.87486
9.65775
9.40855
9.12679
8.82288
8.53437
8.31704
8.19595
8.17751
8.22674
8.31887
8.37623
8.35143
8.24644
8.09967
7.87177
550.175
513.518
7.25154
8.21301
8.80976
9.21368
9.53406
9.80371
10.0309
10.2205
10.3737
10.4909
10.5718
10.6143
10.6169
10.58
10.4985
10.3773
10.2235
10.0351
9.81331
9.55716
9.26384
8.93966
8.61937
8.36305
8.20866
8.16245
8.1992
8.29052
8.36462
8.36677
8.28656
8.15182
7.91706
550.156
513.573
7.28399
8.23651
8.82691
9.23004
9.55539
9.83154
10.0655
10.26
10.4169
10.5381
10.6247
10.6775
10.6975
10.6848
10.635
10.5439
10.4069
10.2232
9.99692
9.73661
9.43411
9.09065
8.73324
8.42681
8.22997
8.16197
8.18942
8.28817
8.37082
8.38858
8.32559
8.19795
7.95109
550.135
513.628
7.30832
8.25025
8.83541
9.23829
9.5695
9.85405
10.097
10.3016
10.4684
10.5982
10.6913
10.7482
10.7706
10.7607
10.7181
10.6423
10.5305
10.3791
10.1843
9.93806
9.63618
9.29068
8.918
8.57147
8.31565
8.18274
8.1898
8.27425
8.37085
8.40414
8.35621
8.23412
7.98735
550.199
513.684
7.33633
8.26488
8.84016
9.23915
9.57238
9.86387
10.1155
10.3288
10.5039
10.6428
10.7453
10.8113
10.8422
10.8392
10.8022
10.731
10.6248
10.4826
10.3032
10.08
9.80354
9.46625
9.08179
8.72024
8.43753
8.25855
8.21118
8.27556
8.37439
8.42673
8.39512
8.28377
8.04178
550.273
513.736
7.36036
8.27371
8.8414
9.24026
9.57333
9.86516
10.1196
10.3407
10.5279
10.6778
10.7909
10.8676
10.9089
10.9153
10.8879
10.8229
10.7205
10.5796
10.3985
10.173
9.89631
9.56023
9.16863
8.77788
8.48293
8.29923
8.24172
8.2953
8.39909
8.4563
8.42857
8.32038
8.067
550.227
513.761
7.37066
8.27426
8.83456
9.23009
9.56494
9.86096
10.1197
10.3427
10.5342
10.6924
10.8143
10.9013
10.9541
10.9728
10.9579
10.9072
10.8196
10.6933
10.5239
10.3052
10.0274
9.67798
9.25582
8.81589
8.49216
8.31579
8.27831
8.34246
8.43944
8.49022
8.46045
8.34759
8.06463
550.074
513.776
7.37642
8.2682
8.81743
9.20938
9.5431
9.84112
10.1063
10.338
10.5341
10.6978
10.8318
10.93
10.9945
11.0254
11.023
10.9868
10.9152
10.8076
10.6603
10.4677
10.2194
9.89762
9.48625
9.01131
8.58479
8.33876
8.29102
8.3666
8.47089
8.52185
8.49039
8.37061
8.06773
550.066
513.794
7.38191
8.26228
8.80238
9.19053
9.52187
9.8191
10.0862
10.323
10.5277
10.6979
10.8339
10.9407
11.0149
11.0556
11.0647
11.0422
10.9847
10.8925
10.7631
10.5947
10.381
10.1088
9.7607
9.34246
8.89749
8.51658
8.35519
8.39257
8.4944
8.54805
8.5193
8.39967
8.10279
550.193
513.82
7.38965
8.25492
8.78188
9.16325
9.49077
9.78773
10.0577
10.2991
10.5099
10.6883
10.8329
10.9428
11.0237
11.0779
11.0986
11.0867
11.0399
10.9568
10.835
10.6742
10.4721
10.2214
9.91642
9.56462
9.16906
8.76174
8.48246
8.43552
8.51385
8.57585
8.55336
8.43861
8.14069
550.233
513.831
7.39124
8.2455
8.76118
9.13417
9.45597
9.7509
10.0215
10.2655
10.4804
10.6642
10.8159
10.9357
11.0231
11.081
11.1117
11.1107
11.0757
11.0029
10.8879
10.7291
10.5247
10.27
9.96201
9.61414
9.24542
8.88946
8.62722
8.54265
8.5834
8.62025
8.58502
8.459
8.13805
550.134
513.833
7.38953
8.2315
8.73484
9.09899
9.41586
9.70862
9.97941
10.2256
10.4439
10.6321
10.7889
10.915
11.0114
11.0781
11.1146
11.1241
11.1075
11.0533
10.9561
10.8134
10.6187
10.3631
10.0401
9.66147
9.26002
8.9061
8.68278
8.61389
8.64356
8.66523
8.61952
8.48394
8.13951
550.067
513.838
7.38967
8.22083
8.71268
9.06815
9.37907
9.66843
9.93834
10.1857
10.4068
10.5984
10.759
10.8895
10.9909
11.0641
11.1091
11.1255
11.115
11.0745
11.0034
10.8946
10.7402
10.5268
10.2432
9.88908
9.46138
9.03839
8.76234
8.67893
8.69823
8.70514
8.65184
8.5081
8.15345
550.127
513.862
7.39273
8.21111
8.69092
9.03704
9.34112
9.6262
9.8946
10.1429
10.3664
10.5615
10.7259
10.8604
10.966
11.0434
11.0931
11.1159
11.111
11.0756
11.0103
10.9163
10.7917
10.6303
10.4246
10.1565
9.79366
9.35063
8.96475
8.77582
8.74366
8.7411
8.68686
8.54703
8.21202
550.307
513.88
7.39548
8.20426
8.67347
9.01002
9.30655
9.58633
9.85212
10.1003
10.3256
10.5233
10.6908
10.8284
10.9368
11.0163
11.0669
11.0887
11.0799
11.039
10.9677
10.8703
10.7511
10.6072
10.4364
10.2276
9.95089
9.58669
9.20038
8.94308
8.85308
8.81513
8.74108
8.5894
8.24029
550.317
513.882
7.39406
8.19581
8.65636
8.98448
9.27354
9.54781
9.81061
10.0585
10.2856
10.4864
10.6576
10.7994
10.9122
10.9964
11.0517
11.0777
11.0705
11.0269
10.947
10.8336
10.6896
10.523
10.3433
10.1508
9.92071
9.63072
9.32435
9.08436
8.96187
8.88777
8.7878
8.60878
8.21908
550.118
513.872
7.39146
8.18802
8.64118
8.96151
9.24337
9.5122
9.7721
10.0195
10.2482
10.4518
10.6267
10.7726
10.8902
10.9798
11.0416
11.0739
11.0723
11.0326
10.9519
10.8319
10.6758
10.487
10.2779
10.0577
9.83323
9.60542
9.37191
9.17874
9.0524
8.95252
8.83236
8.6354
8.21418
550.024
513.869
7.39212
8.18499
8.62782
8.93944
9.21376
9.47666
9.73356
9.98102
10.2119
10.4191
10.5984
10.749
10.8713
10.9662
11.0345
11.0743
11.0829
11.0579
10.9932
10.8854
10.7359
10.5472
10.3251
10.0776
9.83426
9.60465
9.39793
9.23793
9.11761
9.00768
8.8761
8.66576
8.22319
550.034
513.873
7.39248
8.18354
8.61899
8.92203
9.18846
9.44514
9.69805
9.94496
10.178
10.3889
10.5723
10.727
10.8532
10.9519
11.0245
11.0692
11.0839
11.068
11.0199
10.9402
10.8233
10.6697
10.476
10.2304
9.93851
9.6611
9.45614
9.30596
9.18642
9.06545
8.92372
8.71121
8.27758
550.273
513.896
7.40118
8.18461
8.61645
8.9109
9.16782
9.41655
9.66431
9.9097
10.1452
10.3609
10.5499
10.7098
10.8401
10.9416
11.0154
11.0604
11.0764
11.0642
11.0236
10.9564
10.8655
10.7518
10.6043
10.4029
10.1393
9.8405
9.57893
9.39148
9.25712
9.12932
8.98217
8.76773
8.34958
550.41
513.919
7.41094
8.19111
8.61739
8.9037
9.15178
9.39127
9.63204
9.87345
10.1091
10.3286
10.5235
10.6898
10.8257
10.9311
11.0058
11.0484
11.0587
11.0387
10.9906
10.9208
10.8354
10.737
10.6156
10.4579
10.2493
9.98672
9.71833
9.50129
9.34261
9.19971
9.04231
8.81884
8.39318
550.412
513.937
7.41771
8.19465
8.61652
8.89841
9.13901
9.36854
9.59917
9.83435
10.0682
10.2905
10.4919
10.6661
10.81
10.9225
11.0015
11.0452
11.0537
11.0276
10.9687
10.8834
10.7808
10.6729
10.5592
10.4255
10.2524
10.047
9.81739
9.60449
9.42817
9.26624
9.09354
8.84984
8.38879
550.255
513.941
7.41933
8.19657
8.61722
8.89482
9.12801
9.34746
9.56595
9.79051
10.0192
10.2419
10.4487
10.6316
10.7859
10.9093
10.9979
11.0498
11.0629
11.0371
10.9739
10.8794
10.7631
10.6359
10.4996
10.3562
10.2065
10.0443
9.86347
9.67762
9.5009
9.3283
9.14484
8.88714
8.39345
550.194
513.935
7.41035
8.1912
8.61401
8.89437
9.12526
9.33425
9.53956
9.7492
9.96719
10.1864
10.396
10.5871
10.7522
10.887
10.987
11.05
11.0764
11.0628
11.0085
10.9188
10.8018
10.6648
10.5119
10.3545
10.1958
10.0423
9.88987
9.73139
9.56313
9.38538
9.19263
8.92242
8.40639
550.213
513.926
7.40221
8.1853
8.61247
8.89296
9.1227
9.33031
9.52232
9.71541
9.91662
10.1263
10.3343
10.5304
10.7054
10.8517
10.9639
11.0398
11.078
11.0787
11.0442
10.9746
10.8773
10.7524
10.5969
10.4134
10.224
10.0575
9.91315
9.77337
9.6189
9.44495
9.25073
8.98169
8.47798
550.394
513.922
7.39153
8.17888
8.61068
8.89415
9.12444
9.32896
9.51708
9.69215
9.87461
10.0682
10.2681
10.4648
10.6465
10.8022
10.9251
11.0125
11.0629
11.0758
11.0529
10.9984
10.9192
10.8149
10.6816
10.5176
10.3301
10.1448
9.97576
9.82403
9.66984
9.49707
9.30293
9.03245
8.52971
550.447
513.913
7.37599
8.16728
8.60714
8.89803
9.13264
9.33597
9.51738
9.68442
9.84155
10.0119
10.1956
10.3847
10.5691
10.7327
10.8659
10.9643
11.0256
11.0483
11.0336
10.9859
10.9126
10.8146
10.6919
10.5472
10.3868
10.2228
10.0599
9.90114
9.737
9.55748
9.3572
9.07709
8.55536
550.414
513.877
7.34826
8.14919
8.60037
8.90166
9.1451
9.35359
9.53291
9.68895
9.83392
9.97409
10.1305
10.3019
10.48
10.6475
10.7905
10.9023
10.9791
11.0177
11.017
10.98
10.9119
10.8138
10.6887
10.5434
10.3908
10.2475
10.1044
9.95341
9.78754
9.60374
9.39937
9.1137
8.57801
550.385
513.836
7.31649
8.12491
8.58848
8.9023
9.15739
9.37592
9.5617
9.71606
9.84622
9.96741
10.089
10.2325
10.3917
10.5529
10.7008
10.8252
10.9212
10.9845
11.0116
11.0008
10.9492
10.8528
10.7161
10.5555
10.3977
10.254
10.1277
9.99551
9.8393
9.65662
9.44949
9.15841
8.60729
550.421
513.808
7.28238
8.09729
8.57465
8.90266
9.17034
9.40085
9.59652
9.75631
9.88263
9.98516
10.0808
10.1837
10.3102
10.4519
10.5931
10.7221
10.8323
10.92
10.9813
11.0122
11.0064
10.951
10.8393
10.6789
10.494
10.3261
10.1832
10.0479
9.89357
9.71202
9.50591
9.22319
8.6978
550.681
513.782
7.24057
8.06375
8.5573
8.90007
9.18316
9.42876
9.63865
9.80991
9.94112
10.0365
10.1083
10.1778
10.26
10.3631
10.4843
10.6039
10.7145
10.8129
10.8973
10.9648
11.004
10.9981
10.9394
10.8164
10.644
10.4549
10.2787
10.1209
9.95864
9.77509
9.56901
9.2851
8.76359
550.749
513.75
7.19453
8.02761
8.53633
8.89328
9.1913
9.45297
9.67976
9.86684
10.0101
10.1096
10.1713
10.2121
10.2569
10.3197
10.3931
10.4839
10.5782
10.67
10.7596
10.8478
10.9242
10.9671
10.9488
10.8768
10.7482
10.5709
10.3822
10.205
10.0297
9.8404
9.62876
9.33415
8.79046
550.72
513.68
7.13283
7.98141
8.5087
8.88081
9.19349
9.47236
9.71718
9.92363
10.0872
10.2035
10.2704
10.2973
10.3062
10.3213
10.3549
10.4009
10.4581
10.5255
10.6031
10.6923
10.7837
10.8611
10.9024
10.8746
10.7878
10.6518
10.4716
10.2808
10.0891
9.89061
9.66879
9.35474
8.77754
550.525
513.607
7.07832
7.93928
8.48028
8.86455
9.19097
9.48592
9.75052
9.98035
10.1677
10.306
10.3929
10.4287
10.4276
10.4107
10.3957
10.3957
10.414
10.4453
10.4904
10.554
10.6289
10.7072
10.7732
10.8045
10.7788
10.6785
10.54
10.3596
10.1604
9.95186
9.72033
9.3929
8.77994
550.466
513.526
7.02117
7.89563
8.45138
8.8472
9.18565
9.49416
9.77473
10.0253
10.2376
10.4036
10.5162
10.5745
10.5883
10.5709
10.5343
10.4948
10.4664
10.4567
10.4689
10.4976
10.5337
10.5738
10.6178
10.6582
10.6769
10.6486
10.5466
10.3931
10.2045
9.99564
9.76044
9.42404
8.79151
550.474
513.483
6.99524
7.87026
8.43208
8.83566
9.18213
9.49948
9.79716
10.069
10.308
10.5034
10.6455
10.7316
10.7689
10.7672
10.7355
10.6853
10.6325
10.5905
10.5674
10.5606
10.5649
10.5774
10.5965
10.612
10.6255
10.6181
10.5586
10.4378
10.2661
10.0598
9.82192
9.48779
8.86699
550.745
513.481
6.98617
7.85852
8.41291
8.81979
9.16971
9.49424
9.80185
10.0944
10.3596
10.5871
10.7622
10.8775
10.9373
10.9496
10.9284
10.8821
10.8266
10.7769
10.7446
10.7244
10.7088
10.6888
10.6593
10.6397
10.6312
10.6215
10.5739
10.4766
10.3244
10.1263
9.89277
9.56975
8.98845
551.077
513.553
7.02035
7.86693
8.40662
8.80234
9.14494
9.46981
9.79083
10.1084
10.4141
10.6812
10.8909
11.0364
11.1203
11.1478
11.1312
11.0821
11.0187
10.9589
10.9182
10.8925
10.8742
10.8523
10.8182
10.7766
10.7323
10.6848
10.6301
10.5351
10.3872
10.1939
9.96317
9.63796
9.05792
551.132
513.664
7.07744
7.88662
8.39681
8.7738
9.10915
9.43668
9.76914
10.1058
10.4329
10.7281
10.961
11.1301
11.2346
11.2772
11.2683
11.2215
11.1548
11.088
11.0397
11.0091
10.9923
10.9776
10.9518
10.9116
10.8552
10.7874
10.7081
10.5994
10.4474
10.2545
10.0197
9.68451
9.0805
551.07
513.812
7.13773
7.89538
8.37233
8.73159
9.05813
9.38328
9.72449
10.0834
10.44
10.7637
11.04
11.2411
11.3624
11.4155
11.41
11.361
11.2869
11.2076
11.1412
11.0937
11.0685
11.058
11.0479
11.0243
10.976
10.9031
10.8059
10.6757
10.5083
10.307
10.0639
9.70985
9.06918
550.86
513.974
7.18496
7.89598
8.3399
8.6758
8.98509
9.30203
9.64573
10.0199
10.4044
10.7606
11.0539
11.2776
11.4316
11.5086
11.5174
11.4776
11.4068
11.3211
11.2355
11.1633
11.1165
11.0995
11.1001
11.0961
11.0646
10.9954
10.8877
10.7436
10.5666
10.3571
10.1
9.71925
9.019
550.645
514.01
7.18851
7.87063
8.28643
8.60013
8.89078
9.18557
9.50536
9.86602
10.2598
10.6491
10.99
11.2561
11.4399
11.5479
11.5877
11.5722
11.517
11.4338
11.3358
11.2407
11.1677
11.1287
11.1191
11.1156
11.0932
11.0359
10.9354
10.7923
10.6101
10.3911
10.1213
9.72123
8.97479
550.485
513.989
7.15853
7.82621
8.22783
8.52752
8.79675
9.05663
9.32779
9.63809
10.0037
10.4044
10.7906
11.1174
11.3639
11.5278
11.6161
11.6393
11.613
11.5443
11.4432
11.3273
11.2209
11.1498
11.1289
11.1329
11.1237
11.0763
10.9829
10.8391
10.6514
10.4265
10.1539
9.74809
8.98093
550.466
513.818
7.06688
7.75772
8.16426
8.4584
8.71314
8.94559
9.16992
9.41284
9.70885
10.0723
10.4735
10.8533
11.1697
11.4068
11.5636
11.6499
11.6742
11.6454
11.5681
11.4534
11.321
11.2063
11.1423
11.131
11.1218
11.0824
11.0001
10.8641
10.6795
10.4556
10.1825
9.77423
8.99923
550.482
513.665
7.0058
7.7107
8.12455
8.42107
8.67445
8.90012
9.10543
9.30673
9.53522
9.82302
10.177
10.5571
10.9103
11.2027
11.424
11.5778
11.6708
11.7032
11.6767
11.5942
11.4669
11.3277
11.2143
11.1475
11.1193
11.0841
11.0132
10.8919
10.7178
10.4986
10.2292
9.82765
9.06485
550.657
513.635
6.98524
7.68679
8.10255
8.40306
8.65965
8.88457
9.08181
9.26275
9.45648
9.69332
9.99238
10.3389
10.6916
11.0084
11.2682
11.4692
11.6151
11.7026
11.7314
11.6983
11.6039
11.4723
11.3402
11.2372
11.1688
11.1154
11.044
10.9265
10.757
10.5418
10.2801
9.89532
9.16423
550.882
513.602
6.94713
7.65632
8.08233
8.39199
8.65492
8.88212
9.07589
9.24254
9.3946
9.56879
9.81367
10.1236
10.4682
10.8007
11.0901
11.3284
11.5156
11.6513
11.7276
11.7415
11.6954
11.5964
11.4699
11.3461
11.2458
11.1646
11.0781
10.9584
10.7913
10.5816
10.3281
9.95308
9.24087
550.992
513.55
6.90906
7.62301
8.05812
8.37807
8.65198
8.88849
9.0857
9.248
9.39076
9.53753
9.71191
9.95934
10.2683
10.5959
10.9015
11.1654
11.3803
11.5459
11.6605
11.7178
11.708
11.6528
11.5635
11.4513
11.3387
11.2368
11.1343
11.0047
10.8341
10.625
10.3721
9.9952
9.27675
551.001
513.524
6.88404
7.59783
8.03855
8.36913
8.65658
8.90937
9.11909
9.28526
9.41758
9.53839
9.68078
9.86908
10.1262
10.428
10.7328
11.0099
11.2416
11.425
11.5608
11.6468
11.6783
11.6521
11.5946
11.5144
11.4144
11.3061
11.1876
11.0436
10.8648
10.6516
10.3941
10.0056
9.26746
550.888
513.493
6.8543
7.57051
8.01668
8.35739
8.65764
8.92373
9.14524
9.32027
9.45561
9.56683
9.67942
9.82479
10.0284
10.2932
10.5859
10.8692
11.1123
11.3074
11.4557
11.557
11.6111
11.6202
11.5916
11.5334
11.4581
11.36
11.2384
11.0863
10.9008
10.683
10.4219
10.0262
9.26918
550.816
513.44
6.81943
7.53653
7.98723
8.33879
8.65562
8.93762
9.17429
9.3613
9.50323
9.61274
9.71012
9.82157
9.97836
10.1962
10.4638
10.7432
10.9936
11.2002
11.3603
11.4733
11.5406
11.5673
11.5589
11.526
11.4684
11.3846
11.2697
11.118
10.9301
10.7097
10.4457
10.0437
9.27207
550.818
513.42
6.79761
7.50824
7.95962
8.31947
8.65092
8.95022
9.20376
9.40506
9.5573
9.67129
9.76306
9.8543
9.9753
10.1509
10.3843
10.6475
10.8994
11.1177
11.2925
11.4201
11.5017
11.5426
11.5506
11.5267
11.4807
11.4102
11.3058
11.16
10.9741
10.7524
10.4869
10.0878
9.32457
550.987
513.419
6.77716
7.48111
7.93413
8.30338
8.65043
8.96685
9.2357
9.44868
9.60811
9.72423
9.81112
9.88844
9.98504
10.129
10.3323
10.5783
10.8294
11.0577
11.2478
11.3937
11.4941
11.5506
11.5672
11.5536
11.5112
11.4431
11.3433
11.2027
11.0193
10.7989
10.5367
10.1461
9.40581
551.195
513.429
6.76052
7.45192
7.90358
8.28054
8.64259
8.97833
9.26625
9.49514
9.66517
9.78519
9.86708
9.92901
9.99939
10.1122
10.2897
10.5232
10.7729
11.0081
11.2114
11.3751
11.4965
11.5762
11.6115
11.6042
11.5622
11.4907
11.3878
11.2461
11.063
10.8432
10.5795
10.1845
9.44546
551.225
513.43
6.73699
7.41807
7.8688
8.25279
8.62955
8.98445
9.29258
9.53909
9.72229
9.84941
9.92921
9.97752
10.0217
10.0977
10.2378
10.4513
10.6969
10.9384
11.1553
11.3383
11.4836
11.5823
11.6428
11.6582
11.6243
11.5504
11.4393
11.2888
11.102
10.8797
10.6116
10.208
9.44747
551.178
513.417
6.70651
7.37832
7.82754
8.21823
8.61051
8.98526
9.31713
9.58458
9.78509
9.9245
10.008
10.0482
10.0681
10.1045
10.1998
10.3796
10.609
10.8483
11.0727
11.2714
11.4396
11.5684
11.6469
11.6789
11.6674
11.6013
11.4874
11.3292
11.1335
10.9043
10.6285
10.2105
9.42528
551.015
513.392
6.67331
7.33526
7.7801
8.1748
8.58135
8.97796
9.33155
9.62136
9.84368
10.002
10.0989
10.1433
10.1516
10.1548
10.2001
10.33
10.5264
10.7529
10.9778
11.1856
11.3685
11.5172
11.6233
11.6763
11.6758
11.6281
11.5241
11.3692
11.1705
10.9356
10.6528
10.2244
9.42318
550.976
513.363
6.63961
7.29073
7.72963
8.12642
8.54507
8.96049
9.33563
9.65108
9.89764
10.078
10.195
10.2552
10.2683
10.2558
10.2586
10.3313
10.4755
10.6693
10.8839
11.0948
11.287
11.4489
11.5715
11.6466
11.6698
11.6344
11.5423
11.3964
11.2035
10.9681
10.6808
10.2462
9.42988
550.992
513.347
6.61383
7.25051
7.6795
8.07463
8.50297
8.93815
9.33692
9.67694
9.94741
10.151
10.2911
10.374
10.4059
10.3986
10.3802
10.3986
10.4819
10.63
10.8166
11.0202
11.2172
11.3902
11.5274
11.6196
11.6587
11.6413
11.5633
11.4277
11.2414
11.0079
10.7174
10.2796
9.46544
551.1
513.334
6.59099
7.21272
7.63068
8.02222
8.45747
8.90829
9.32615
9.68232
9.9764
10.2006
10.3632
10.4702
10.5261
10.5375
10.5233
10.5197
10.5523
10.64
10.7851
10.9666
11.1628
11.3466
11.4989
11.6067
11.6602
11.6573
11.5887
11.4597
11.2782
11.0477
10.7551
10.3131
9.49287
551.13
513.331
6.57525
7.17703
7.57928
7.96349
8.40388
8.86976
9.30639
9.68251
9.98969
10.2363
10.4211
10.5534
10.6364
10.6724
10.6722
10.6593
10.6573
10.6941
10.7891
10.9358
11.1097
11.2942
11.4624
11.5902
11.6594
11.6666
11.6096
11.4873
11.3091
11.0789
10.7828
10.3378
9.51535
551.133
513.34
6.57098
7.14804
7.53189
7.90592
8.34932
8.82609
9.27663
9.66774
9.9897
10.247
10.4524
10.6112
10.726
10.7987
10.8327
10.8374
10.8239
10.818
10.8513
10.9497
11.1026
11.2618
11.4165
11.5492
11.6377
11.6622
11.6177
11.507
11.3372
11.1121
10.8181
10.3681
9.5356
551.16
513.376
6.57147
7.12339
7.48818
7.85085
8.29462
8.78056
9.24332
9.6461
9.97746
10.2444
10.4585
10.6342
10.7793
10.8915
10.9704
11.0154
11.0263
11.0164
11.0139
11.05
11.1353
11.2671
11.4143
11.5377
11.626
11.6619
11.6342
11.5369
11.3766
11.1577
10.8688
10.4261
9.60602
551.347
513.442
6.5848
7.10606
7.45094
7.80116
8.24251
8.73585
9.20938
9.62058
9.95684
10.2275
10.447
10.6309
10.7898
10.9285
11.0478
11.1402
11.1955
11.2141
11.2138
11.2249
11.2661
11.341
11.4361
11.543
11.6284
11.6655
11.6466
11.5615
11.412
11.2019
10.9208
10.4853
9.66885
551.432
513.517
6.59474
7.08796
7.41734
7.75172
8.18581
8.68511
9.17092
9.59025
9.9293
10.199
10.4159
10.5979
10.7589
10.9092
11.0552
11.19
11.2966
11.3609
11.389
11.4053
11.4294
11.4735
11.5366
11.6067
11.6673
11.699
11.6782
11.5944
11.4488
11.2432
10.9628
10.5229
9.6967
551.436
513.582
6.5968
7.06691
7.38293
7.70463
8.12113
8.62139
9.12054
9.55161
9.89637
10.1658
10.3777
10.552
10.7046
10.8515
11.0079
11.1666
11.3065
11.4228
11.5062
11.557
11.5851
11.6074
11.6374
11.6777
11.7175
11.7356
11.7093
11.6235
11.4783
11.2737
10.9933
10.5486
9.69443
551.34
513.608
6.58605
7.04026
7.3447
7.6525
8.04757
8.53937
9.05118
9.49852
9.85482
10.129
10.339
10.5053
10.6445
10.7753
10.9189
11.0795
11.2457
11.3917
11.5073
11.6036
11.679
11.7318
11.7655
11.7888
11.8008
11.7907
11.742
11.6461
11.4977
11.2918
11.007
10.5483
9.66589
551.145
513.609
6.56779
7.01399
7.30727
7.59818
7.97056
8.43838
8.95935
9.42825
9.80498
10.0936
10.3113
10.4775
10.6083
10.7223
10.8413
10.9788
11.1327
11.2894
11.4399
11.5705
11.6705
11.7411
11.7983
11.8345
11.8439
11.8248
11.7698
11.6676
11.515
11.3064
11.0177
10.5482
9.63416
551.018
513.592
6.54388
6.98686
7.26997
7.54164
7.88734
8.33154
8.85684
9.34922
9.75209
10.0623
10.2949
10.4682
10.5969
10.6981
10.7903
10.8921
11.0185
11.1689
11.3278
11.4776
11.6038
11.7102
11.7859
11.8346
11.8542
11.843
11.7878
11.6835
11.5305
11.3229
11.0343
10.5582
9.63468
550.992
513.556
6.51973
6.96575
7.24009
7.49228
7.80971
8.22933
8.74545
9.26203
9.6965
10.0355
10.2915
10.4792
10.6137
10.7116
10.7865
10.8522
10.934
11.0562
11.2148
11.3845
11.5373
11.6611
11.7523
11.8128
11.8433
11.8359
11.7858
11.6881
11.5392
11.3359
11.0521
10.58
9.65184
550.993
513.505
6.49592
6.94842
7.2143
7.44498
7.72807
8.11314
8.61378
9.15446
9.62774
10.0042
10.2888
10.4986
10.6504
10.7543
10.819
10.8555
10.8824
10.9386
11.063
11.239
11.4186
11.5782
11.705
11.7919
11.836
11.8338
11.7847
11.6879
11.544
11.3454
11.0665
10.6008
9.67456
551.001
513.441
6.47802
6.94384
7.20031
7.41218
7.6611
8.00293
8.47408
9.02846
9.53977
9.95659
10.2794
10.5255
10.7057
10.8261
10.8966