/*--------------------------------*- C++ -*----------------------------------*\
| =========                 |                                                 |
| \\      /  F ield         | OpenFOAM: The Open Source CFD Toolbox           |
|  \\    /   O peration     | Version:  2.0.x                                 |
|   \\  /    A nd           | Web:      www.OpenFOAM.org                      |
|    \\/     M anipulation  |                                                 |
\*---------------------------------------------------------------------------*/
FoamFile
{
    version     2.0;
    format      ascii;
    class       volScalarField;
    location    "1000";
    object      omega;
}
// * * * * * * * * * * * * * * * * * * * * * * * * * * * * * * * * * * * * * //

dimensions      [0 0 -1 0 0 0 0];

internalField   nonuniform List<scalar> 
78750
(
1019.52
6.10288
6.59625
6.76458
6.85468
6.96746
7.10624
7.2465
7.36454
7.46796
7.55835
7.63467
7.69683
7.75329
7.80112
7.83592
7.86962
7.91984
7.95546
7.97133
7.97165
7.96469
7.94949
7.92887
7.90304
7.87299
7.83756
7.79952
7.75841
7.71257
7.66007
7.59649
7.51076
7.174
1089.3
1019.38
5.32361
5.71942
5.91348
6.15816
6.50252
6.87514
7.21542
7.51639
7.77117
7.98106
8.1501
8.27752
8.40094
8.48969
8.54191
8.53777
8.51236
8.45981
8.40693
8.35322
8.29938
8.24539
8.19147
8.13781
8.08638
8.03326
7.9706
7.90413
7.83076
7.74788
7.65268
7.5077
7.13516
1090.55
1019.09
4.73888
5.32646
5.93407
6.56781
7.15501
7.66963
8.0613
8.33802
8.53049
8.66162
8.74439
8.78123
8.7686
8.72046
8.66145
8.59601
8.52631
8.45338
8.37658
8.29774
8.21604
8.12874
8.05035
7.97951
7.91011
7.85322
7.81035
7.7768
7.7467
7.70827
7.63532
7.4696
7.17024
1091.57
1019.12
5.30241
6.33489
7.2024
7.87558
8.3134
8.55601
8.70495
8.80017
8.85232
8.87076
8.86551
8.83599
8.78873
8.72585
8.64185
8.54235
8.43297
8.31909
8.20626
8.09855
8.00228
7.92299
7.83647
7.74092
7.65819
7.58814
7.53383
7.50602
7.50429
7.50822
7.49266
7.38731
7.19079
1091.91
1019.28
5.7451
6.89243
7.66005
8.12431
8.41024
8.61043
8.75525
8.85712
8.92307
8.95573
8.95451
8.92166
8.84933
8.74049
8.60723
8.46404
8.32107
8.19268
8.09239
8.0265
7.98553
7.94991
7.89997
7.82995
7.73703
7.62321
7.51858
7.43079
7.38118
7.37356
7.37142
7.31675
7.18824
1091.89
1019.53
6.1937
7.33882
8.04414
8.46824
8.7332
8.90832
9.02449
9.0945
9.12356
9.11607
9.06949
8.98612
8.86939
8.72735
8.56384
8.38499
8.21703
8.07353
7.97791
7.94602
7.95845
7.9885
7.99831
7.9819
7.92376
7.8155
7.65396
7.48946
7.37207
7.31358
7.29781
7.25332
7.12924
1091.64
1019.68
6.3349
7.4675
8.14459
8.53917
8.78435
8.94982
9.06299
9.13415
9.16702
9.16343
9.1179
9.02909
8.90298
8.74082
8.56299
8.37845
8.1977
8.03673
7.89639
7.7991
7.7776
7.80804
7.86511
7.90784
7.90977
7.86795
7.7595
7.59814
7.41613
7.30756
7.25633
7.19858
7.06078
1091.46
1019.89
6.59657
7.74853
8.40276
8.77017
8.99684
9.148
9.24605
9.29829
9.30679
9.27841
9.1994
9.07784
8.91771
8.73829
8.54837
8.36687
8.19854
8.04169
7.89781
7.78804
7.73819
7.75035
7.8059
7.86905
7.90513
7.89357
7.8258
7.68776
7.50184
7.33111
7.23783
7.15941
7.01782
1091.44
1020.1
6.77891
7.9005
8.52098
8.86584
9.07862
9.2196
9.30892
9.3529
9.35176
9.30801
9.21575
9.08412
8.91786
8.72972
8.53346
8.3488
8.17389
8.00726
7.85249
7.71814
7.6303
7.61023
7.64555
7.72331
7.79779
7.83812
7.81658
7.72335
7.56072
7.38736
7.24856
7.14385
6.99087
1091.44
1020.31
6.97776
8.08075
8.67329
8.99901
9.20195
9.33722
9.42114
9.45785
9.44836
9.39017
9.28714
9.14305
8.96567
8.76559
8.55663
8.3567
8.17183
7.99905
7.83593
7.69657
7.59701
7.55416
7.5671
7.62413
7.69352
7.74514
7.75445
7.7081
7.59401
7.42979
7.27721
7.14898
6.98804
1091.46
1020.5
7.10022
8.16765
8.73912
9.05663
9.25813
9.39451
9.48045
9.51964
9.51272
9.45954
9.36369
9.23005
9.06366
8.87092
8.6598
8.43945
8.21753
8.0092
7.82002
7.65701
7.53963
7.48617
7.49124
7.53721
7.60534
7.66498
7.69351
7.67446
7.59326
7.46208
7.30864
7.16527
6.99208
1091.49
1020.59
7.16281
8.22329
8.79483
9.11547
9.32225
9.46507
9.5581
9.60388
9.60547
9.56268
9.47766
9.35445
9.19852
9.016
8.81378
8.59823
8.36825
8.12479
7.87711
7.64568
7.46085
7.35359
7.3347
7.37921
7.46053
7.54417
7.60208
7.61527
7.57714
7.48253
7.33706
7.18988
7.00883
1091.52
1020.62
7.16814
8.23252
8.80919
9.13784
9.35375
9.50663
9.61099
9.67127
9.68745
9.66299
9.599
9.49787
9.36259
9.19719
9.00716
8.79994
8.57809
8.34189
8.09286
7.83836
7.59861
7.40888
7.30698
7.28107
7.31437
7.39171
7.48054
7.53866
7.5405
7.47625
7.35048
7.20992
7.03003
1091.57
1020.6
7.16927
8.24042
8.8261
9.16354
9.38848
9.551
9.66596
9.73842
9.76895
9.76112
9.71528
9.63333
9.51732
9.36982
9.19451
8.99694
8.78273
8.55222
8.30654
8.04867
7.78848
7.55115
7.37547
7.28112
7.25651
7.28252
7.34777
7.41722
7.46816
7.45516
7.36658
7.23503
7.06114
1091.66
1020.59
7.16416
8.2419
8.84087
9.18955
9.42338
9.59424
9.71829
9.80117
9.84465
9.84952
9.81725
9.74955
9.64824
9.5152
9.35282
9.16475
8.95722
8.73226
8.49085
8.23511
7.97093
7.71666
7.50283
7.34494
7.25955
7.24336
7.26878
7.32948
7.3912
7.40932
7.35952
7.25596
7.10213
1091.79
1020.59
7.16017
8.24599
8.85519
9.21243
9.45377
9.63235
9.76487
9.85723
9.91171
9.92865
9.90947
9.85542
9.76801
9.64876
9.49937
9.32216
9.12097
8.90044
8.66085
8.40431
8.13564
7.86523
7.62328
7.43473
7.30574
7.24398
7.23843
7.27122
7.33379
7.37038
7.35392
7.27371
7.14372
1091.92
1020.59
7.1611
8.25532
8.87459
9.24041
9.48881
9.67405
9.81372
9.9141
9.97758
10.0048
9.99661
9.95424
9.87915
9.77283
9.63666
9.47221
9.28181
9.06983
8.83708
8.58316
8.31024
8.02648
7.76037
7.54186
7.37526
7.26932
7.23377
7.25012
7.30298
7.35622
7.35391
7.29461
7.18535
1092.03
1020.61
7.1759
8.27015
8.89496
9.26677
9.5209
9.71204
9.85814
9.96569
10.0372
10.0734
10.0746
10.0425
9.97758
9.88168
9.75623
9.60261
9.42248
9.21859
8.99422
8.74739
8.47736
8.18803
7.90382
7.65721
7.45762
7.31784
7.24815
7.25034
7.2997
7.35277
7.36043
7.31812
7.22655
1092.14
1020.62
7.1867
8.28814
8.92138
9.29992
9.55962
9.75626
9.90825
10.0222
10.1007
10.1445
10.1537
10.1302
10.0739
9.98707
9.87116
9.72745
9.5574
9.36296
9.1484
8.91224
8.65212
8.3674
8.07432
7.80526
7.57403
7.39408
7.28583
7.26009
7.30294
7.36262
7.37528
7.34623
7.26904
1092.26
1020.66
7.20892
8.31249
8.94897
9.33169
9.59594
9.79743
9.95467
10.0743
10.159
10.2094
10.2256
10.209
10.1595
10.0796
9.97072
9.83423
9.67155
9.48422
9.27539
9.04599
8.79428
8.51983
8.22767
7.9443
7.69732
7.49298
7.34967
7.28888
7.30785
7.36683
7.39594
7.37935
7.31802
1092.39
1020.72
7.23913
8.34262
8.98181
9.36844
9.6371
9.84335
10.0057
10.1308
10.2214
10.2781
10.3007
10.2901
10.2468
10.1727
10.0692
9.93781
9.77995
9.59692
9.39089
9.16323
8.91024
8.62979
8.32846
8.03607
7.78284
7.57104
7.41298
7.33119
7.33716
7.38684
7.42279
7.41557
7.36674
1092.48
1020.78
7.27381
8.37516
9.01407
9.40246
9.67494
9.88592
10.0533
10.1837
10.2797
10.3425
10.3715
10.367
10.3303
10.2623
10.1647
10.039
9.8865
9.70843
9.50638
9.2822
9.03133
8.75008
8.44233
8.13451
7.86161
7.63579
7.46851
7.37671
7.37357
7.41917
7.45835
7.45606
7.40903
1092.5
1020.85
7.31379
8.41366
9.05116
9.43969
9.7146
9.92964
10.1024
10.2392
10.3424
10.4122
10.4479
10.4491
10.4197
10.3571
10.265
10.145
9.99813
9.82525
9.62804
9.40872
9.16237
8.88373
8.57248
8.24742
7.94556
7.69449
7.51423
7.4191
7.41532
7.45941
7.49756
7.49448
7.44066
1092.5
1020.91
7.35175
8.44776
9.08175
9.46947
9.74613
9.96417
10.1407
10.2825
10.3921
10.4705
10.5171
10.5305
10.5109
10.4563
10.3713
10.2581
10.1172
9.95015
9.75836
9.54426
9.30433
9.0336
8.72858
8.39302
8.06044
7.77762
7.56977
7.46023
7.45441
7.49914
7.53742
7.53247
7.47167
1092.54
1020.97
7.38958
8.48374
9.11412
9.5003
9.77781
9.9979
10.1773
10.3224
10.4363
10.52
10.574
10.5981
10.5929
10.557
10.4871
10.3817
10.2454
10.0812
9.89206
9.68154
9.44646
9.18218
8.88394
8.55029
8.20723
7.9016
7.65827
7.5159
7.49565
7.53793
7.57804
7.57418
7.51518
1092.65
1021.04
7.43221
8.52066
9.14385
9.52652
9.80371
10.025
10.2066
10.3549
10.4729
10.5621
10.6228
10.6559
10.6624
10.6433
10.5926
10.5078
10.3847
10.2234
10.0325
9.81927
9.58284
9.31975
9.02414
8.69282
8.34763
8.032
7.76466
7.58928
7.54591
7.5814
7.62163
7.61907
7.56251
1092.73
1021.12
7.47618
8.55918
9.1754
9.55434
9.8301
10.0512
10.2334
10.3831
10.5031
10.5952
10.6599
10.6992
10.7135
10.7029
10.6643
10.5967
10.4964
10.3585
10.1793
9.96129
9.71366
9.43967
9.13557
8.79888
8.44999
8.13102
7.85638
7.66562
7.60669
7.63565
7.67361
7.66951
7.60702
1092.75
1021.2
7.52058
8.594
9.20081
9.57511
9.84918
10.0702
10.2533
10.4046
10.5273
10.6225
10.6912
10.7339
10.7515
10.7447
10.712
10.6518
10.562
10.4395
10.2817
10.0867
9.84808
9.56337
9.24585
8.89335
8.52891
8.19957
7.92151
7.72944
7.66655
7.69134
7.72395
7.71431
7.63962
1092.73
1021.27
7.56218
8.62754
9.2255
9.59452
9.86566
10.0851
10.2674
10.419
10.5428
10.6409
10.7138
10.7631
10.7895
10.7926
10.7729
10.7248
10.6472
10.5366
10.3903
10.2063
9.97893
9.70099
9.3668
8.99569
8.61005
8.26236
7.97571
7.78566
7.72717
7.75183
7.77927
7.76143
7.66729
1092.68
1021.34
7.59909
8.65476
9.244
9.60808
9.8765
10.0944
10.2759
10.427
10.5501
10.6497
10.7269
10.7807
10.8124
10.8221
10.8096
10.7715
10.7062
10.6104
10.4814
10.3155
10.106
9.84349
9.51623
9.12284
8.71182
8.33777
8.03166
7.83622
7.77966
7.80427
7.82678
7.80089
7.69035
1092.67
1021.41
7.63581
8.68159
9.26193
9.62046
9.88524
10.1004
10.28
10.4295
10.5534
10.6528
10.7302
10.7877
10.826
10.8437
10.8398
10.8123
10.7588
10.6768
10.5641
10.4171
10.2294
9.99118
9.68754
9.30506
8.87078
8.46304
8.11798
7.89754
7.83554
7.85937
7.87673
7.84209
7.71499
1092.68
1021.48
7.67052
8.70397
9.27501
9.62836
9.8901
10.1027
10.2805
10.4301
10.5539
10.6536
10.7309
10.7885
10.8277
10.8505
10.8526
10.8338
10.7885
10.7172
10.6185
10.4892
10.325
10.1192
9.85667
9.51734
9.1053
8.66595
8.26491
7.98322
7.88855
7.90485
7.92077
7.88517
7.76033
1092.82
1021.56
7.70376
8.7242
9.28596
9.63369
9.89121
10.1029
10.2808
10.4293
10.5519
10.6513
10.7296
10.7883
10.8294
10.8515
10.8561
10.8428
10.8063
10.7427
10.6515
10.53
10.3763
10.1867
9.95465
9.66777
9.31899
8.91685
8.47843
8.13048
7.97161
7.9593
7.96884
7.9312
7.80639
1092.88
1021.64
7.73179
8.73833
9.29153
9.63435
9.8908
10.0992
10.2726
10.4172
10.5369
10.6346
10.7131
10.7748
10.82
10.8479
10.8562
10.8436
10.8094
10.7489
10.6598
10.5385
10.3834
10.1928
9.96485
9.69462
9.38202
9.02551
8.62102
8.25961
8.07359
8.03688
8.0318
7.9844
7.84313
1092.83
1021.69
7.75154
8.74672
9.2922
9.63198
9.88462
10.0909
10.2631
10.4061
10.5237
10.6191
10.6955
10.7562
10.8022
10.8328
10.8461
10.8394
10.8085
10.7531
10.667
10.5443
10.3823
10.1797
9.93304
9.63822
9.30934
8.9607
8.59791
8.29629
8.14234
8.10314
8.08282
8.01769
7.83705
1092.59
1021.73
7.76342
8.74811
9.28925
9.6252
9.87589
10.0803
10.2501
10.3906
10.5057
10.5988
10.6741
10.7349
10.7823
10.8155
10.8327
10.8311
10.8081
10.7614
10.6839
10.5685
10.4095
10.201
9.93781
9.62073
9.26745
8.90002
8.55724
8.31564
8.19933
8.1643
8.13288
8.05108
7.83763
1092.51
1021.76
7.76887
8.74632
9.28177
9.61534
9.86473
10.0682
10.2367
10.3753
10.4878
10.5782
10.6513
10.7112
10.7594
10.7952
10.8166
10.8209
10.8056
10.7662
10.7024
10.6027
10.4611
10.2715
10.0247
9.71585
9.34994
8.94157
8.56548
8.32582
8.23583
8.2119
8.17316
8.07635
7.83975
1092.53
1021.79
7.7702
8.73944
9.27121
9.60322
9.85195
10.0547
10.2221
10.3588
10.4687
10.5561
10.6267
10.6851
10.7335
10.7715
10.7968
10.8064
10.7976
10.7668
10.7092
10.6231
10.5032
10.3421
10.1314
9.8655
9.54301
9.14737
8.71105
8.39133
8.27365
8.25058
8.21166
8.11278
7.88372
1092.69
1021.82
7.77016
8.73125
9.25895
9.58948
9.83782
10.0402
10.2065
10.3416
10.4489
10.5327
10.5993
10.6545
10.7012
10.7395
10.7672
10.7813
10.7786
10.7559
10.7064
10.6248
10.5097
10.3587
10.1682
9.93796
9.66447
9.32422
8.91671
8.53742
8.34483
8.29441
8.25078
8.15126
7.92178
1092.72
1021.84
7.7659
8.71802
9.24296
9.5731
9.82172
10.0245
10.1912
10.3256
10.431
10.5113
10.5738
10.6247
10.6681
10.7049
10.7333
10.7502
10.7523
10.7363
10.6933
10.6184
10.5074
10.3556
10.1617
9.9289
9.66228
9.34749
8.99127
8.6526
8.4391
8.35569
8.29371
8.18375
7.93611
1092.66
1021.85
7.75424
8.70038
9.22412
9.55456
9.80428
10.0083
10.1754
10.3094
10.4131
10.4909
10.5494
10.595
10.6327
10.6655
10.6927
10.7117
10.7192
10.7109
10.6789
10.6174
10.5206
10.3857
10.2019
9.96918
9.69051
9.36055
9.00543
8.68379
8.49415
8.41088
8.3385
8.21726
7.9531
1092.66
1021.87
7.74238
8.68118
9.20358
9.53512
9.78673
9.99248
10.1609
10.2952
10.3981
10.4735
10.5279
10.5682
10.5995
10.6254
10.6475
10.6641
10.6722
10.6674
10.6431
10.5953
10.5204
10.413
10.2694
10.0871
9.8522
9.53978
9.15625
8.7983
8.56286
8.46106
8.38071
8.25394
7.98966
1092.78
1021.89
7.7275
8.65845
9.18049
9.51398
9.7682
9.97637
10.1466
10.2817
10.3841
10.4569
10.5063
10.5399
10.5639
10.5823
10.5968
10.6072
10.6106
10.602
10.5746
10.526
10.4552
10.3616
10.2451
10.1031
9.9188
9.66494
9.32674
8.96038
8.67919
8.5306
8.4318
8.29866
8.02812
1092.79
1021.89
7.70636
8.63174
9.1552
9.49164
9.74925
9.96094
10.1343
10.2717
10.3748
10.4463
10.493
10.522
10.5389
10.5477
10.5522
10.5538
10.5502
10.5342
10.4992
10.4414
10.3608
10.2601
10.1449
10.0203
9.87106
9.66359
9.37763
9.06159
8.78617
8.61017
8.48646
8.33353
8.02955
1092.65
1021.88
7.67696
8.59899
9.12521
9.46576
9.72785
9.94406
10.1218
10.2632
10.3696
10.4437
10.4892
10.5125
10.5206
10.5208
10.5174
10.5096
10.499
10.4779
10.4377
10.3729
10.2814
10.1652
10.0313
9.89013
9.73895
9.56473
9.35303
9.10443
8.86501
8.68172
8.53864
8.36599
8.02951
1092.54
1021.86
7.64305
8.56288
9.09328
9.43853
9.70559
9.92715
10.1105
10.2574
10.3685
10.4441
10.4903
10.5124
10.5178
10.5121
10.4989
10.4818
10.4633
10.4375
10.3956
10.3316
10.2416
10.1247
9.98582
9.83326
9.66541
9.48331
9.29121
9.09987
8.90423
8.73675
8.58945
8.40222
8.03836
1092.56
1021.82
7.60326
8.52241
9.05801
9.40816
9.68079
9.90841
10.0982
10.2518
10.3697
10.4527
10.5039
10.5285
10.5318
10.5196
10.4973
10.4712
10.4428
10.4065
10.3583
10.2946
10.2092
10.1019
9.97603
9.83392
9.66952
9.48466
9.28823
9.10273
8.92762
8.77541
8.6303
8.44036
8.07669
1092.65
1021.78
7.56056
8.48188
9.02326
9.37724
9.65482
9.88872
10.0856
10.247
10.3732
10.4643
10.5231
10.5537
10.5608
10.5491
10.5227
10.4862
10.4435
10.3955
10.3354
10.2578
10.1631
10.0537
9.93565
9.81063
9.6636
9.48408
9.29797
9.12616
8.96809
8.82154
8.67605
8.48012
8.10166
1092.65
1021.72
7.51629
8.4416
8.98869
9.34597
9.6269
9.86658
10.0707
10.2401
10.3752
10.4757
10.5441
10.5842
10.5998
10.5942
10.571
10.5339
10.4865
10.4266
10.3496
10.2526
10.1376
10.0072
9.87027
9.73039
9.58736
9.44016
9.28061
9.12637
8.98507
8.8528
8.71071
8.51368
8.12662
1092.62
1021.66
7.47438
8.40402
8.95665
9.31688
9.59931
9.84288
10.0541
10.2317
10.3761
10.487
10.5664
10.6178
10.645
10.6505
10.6375
10.6081
10.5661
10.5099
10.4337
10.3322
10.2048
10.058
9.90024
9.73317
9.56253
9.39279
9.24088
9.11597
9.00215
8.88239
8.74249
8.5408
8.13688
1092.63
1021.61
7.44181
8.37336
8.92933
9.29094
9.57353
9.81933
10.0352
10.2205
10.3731
10.4938
10.5842
10.6471
10.687
10.7062
10.7065
10.6901
10.6593
10.6137
10.5495
10.4623
10.3497
10.2159
10.0624
9.87589
9.65241
9.42878
9.2487
9.12025
9.0236
8.92146
8.7852
8.5853
8.19653
1092.88
1021.6
7.42172
8.35283
8.90946
9.27078
9.55231
9.79783
10.0158
10.2063
10.3656
10.4943
10.5919
10.6651
10.7156
10.7481
10.7631
10.7613
10.7444
10.7115
10.6593
10.5881
10.4981
10.3941
10.2735
10.1154
9.90224
9.64048
9.37011
9.17083
9.04232
8.9404
8.8167
8.63043
8.27604
1093.18
1021.6
7.41001
8.3374
8.89346
9.25349
9.53342
9.77696
9.99513
10.188
10.3527
10.4866
10.5921
10.6712
10.7306
10.7744
10.8028
10.813
10.8103
10.7904
10.7487
10.686
10.6079
10.5238
10.4331
10.3158
10.147
9.91098
9.62272
9.34713
9.14753
9.00657
8.87133
8.69023
8.34689
1093.24
1021.62
7.40923
8.33081
8.88199
9.23814
9.5149
9.75544
9.97226
10.1654
10.3328
10.4706
10.5797
10.6655
10.7335
10.7841
10.8222
10.8514
10.8646
10.8579
10.8215
10.7562
10.6723
10.5854
10.4998
10.4014
10.2665
10.0712
9.81424
9.52601
9.27511
9.0859
8.9253
8.72743
8.35709
1093.1
1021.63
7.40923
8.32597
8.87087
9.22194
9.49461
9.73104
9.94499
10.1363
10.3036
10.4442
10.5556
10.6428
10.7119
10.769
10.8185
10.8624
10.8975
10.9077
10.8839
10.8169
10.7203
10.6156
10.5099
10.4012
10.2726
10.1084
9.89966
9.6482
9.39818
9.18462
8.99589
8.76405
8.33886
1092.83
1021.63
7.41562
8.32482
8.86061
9.20558
9.47357
9.70512
9.915
10.103
10.2684
10.4101
10.5239
10.6139
10.6862
10.7469
10.8026
10.8587
10.9161
10.9596
10.9626
10.9154
10.8197
10.6988
10.5593
10.4119
10.2726
10.114
9.93201
9.71185
9.47521
9.25327
9.05033
8.80007
8.33914
1092.79
1021.65
7.42779
8.32659
8.85186
9.19039
9.45344
9.67959
9.88427
10.0672
10.2283
10.3674
10.4823
10.5728
10.6454
10.7076
10.7676
10.8346
10.9155
10.9976
11.0539
11.0554
11.0036
10.8953
10.7353
10.5363
10.3211
10.1301
9.95971
9.779
9.56231
9.33471
9.11565
8.84537
8.35283
1092.89
1021.71
7.45313
8.33373
8.84551
9.17674
9.43476
9.65541
9.85425
10.0312
10.1868
10.3218
10.4358
10.5261
10.5982
10.6595
10.7196
10.7916
10.8896
11.0089
11.1229
11.1992
11.2168
11.1701
11.0414
10.8444
10.5965
10.331
10.0884
9.87824
9.66419
9.43063
9.19492
8.92237
8.4775
1093.42
1021.84
7.4921
8.34642
8.84187
9.16491
9.41751
9.63251
9.82422
9.9935
10.1411
10.2683
10.3761
10.464
10.5325
10.589
10.6439
10.7137
10.8189
10.9652
11.1349
11.2856
11.3854
11.4136
11.3606
11.2142
10.9885
10.7008
10.3811
10.0751
9.79975
9.53642
9.28898
9.0117
8.5873
1093.6
1021.97
7.52453
8.3492
8.83321
9.14947
9.39736
9.60731
9.79154
9.95241
10.0908
10.2088
10.3086
10.3914
10.4549
10.505
10.5504
10.6084
10.7039
10.8547
11.0533
11.2583
11.4245
11.525
11.5388
11.4605
11.2877
11.0238
10.6853
10.3208
9.98095
9.67891
9.40371
9.09232
8.60796
1093.5
1022.05
7.53406
8.35045
8.82124
9.13083
9.37461
9.58018
9.75785
9.91102
10.0403
10.1485
10.2391
10.315
10.3765
10.4234
10.4614
10.5039
10.5744
10.7035
10.9008
11.136
11.3593
11.5051
11.5444
11.4923
11.3496
11.1124
10.792
10.4322
10.0841
9.77102
9.47785
9.12298
8.55932
1092.84
1022.06
7.53514
8.33679
8.79972
9.10516
9.34652
9.54941
9.7219
9.86822
9.98874
10.0867
10.1671
10.2354
10.2954
10.3441
10.3826
10.4149
10.4521
10.5292
10.6798
10.907
11.1576
11.3576
11.4603
11.4575
11.3403
11.1144
10.8137
10.4709
10.1344
9.82587
9.51554
9.11057
8.40744
1092.32
1022.01
7.515
8.31697
8.77568
9.07882
9.3194
9.52135
9.69056
9.83167
9.94463
10.0327
10.1021
10.1604
10.2164
10.2723
10.3245
10.3669
10.3903
10.418
10.495
10.6587
10.8804
11.0899
11.2296
11.2724
11.2154
11.0575
10.8073
10.5019
10.1902
9.88152
9.55304
9.10999
8.33542
1092.16
1021.94
7.49366
8.29468
8.74878
9.05026
9.29135
9.49426
9.66281
9.79997
9.90655
9.98498
10.0417
10.0864
10.1325
10.1905
10.2591
10.3262
10.3667
10.3755
10.389
10.4614
10.608
10.8026
10.9864
11.1024
11.1134
11.0115
10.8075
10.5467
10.2465
9.93374
9.59554
9.1332
8.33888
1092.17
1021.87
7.4739
8.27202
8.72279
9.02425
9.26746
9.47311
9.64342
9.77922
9.88226
9.95319
9.99757
10.0259
10.0548
10.1036
10.1863
10.2918
10.3848
10.4383
10.4498
10.4638
10.5123
10.5928
10.7008
10.8241
10.9036
10.8951
10.7781
10.5563
10.2774
9.97332
9.63654
9.17519
8.37519
1092.36
1021.86
7.46599
8.25307
8.69849
8.99992
9.24584
9.45514
9.62858
9.76481
9.86613
9.93058
9.96205
9.97249
9.97637
9.99984
10.0735
10.2072
10.3698
10.5041
10.5852
10.6141
10.6076
10.6139
10.654
10.6968
10.7366
10.741
10.688
10.5482
10.3205
10.0429
9.72198
9.28391
8.52674
1092.85
1021.89
7.46405
8.2352
8.67554
8.97823
9.22824
9.44288
9.62192
9.76181
9.86358
9.92574
9.94913
9.93681
9.91074
9.89463
9.93044
10.0589
10.2687
10.4974
10.6787
10.7831
10.8097
10.7816
10.7318
10.7158
10.7328
10.7276
10.6773
10.5514
10.3515
10.0888
9.78277
9.38239
8.70824
1093.33
1021.98
7.46538
8.21688
8.65196
8.95593
9.21007
9.4305
9.61704
9.76597
9.87321
9.93475
9.94973
9.92299
9.8674
9.80479
9.78782
9.86488
10.0838
10.3816
10.6655
10.8693
10.9825
11.0039
10.9571
10.8764
10.7943
10.737
10.6755
10.5531
10.3699
10.1274
9.84871
9.48056
8.84168
1093.46
1022.07
7.45782
8.1916
8.62447
8.93143
9.19051
9.41715
9.61119
9.76857
9.88428
9.95219
9.96785
9.93326
9.85775
9.76422
9.6732
9.65985
9.82387
10.1402
10.5057
10.8131
10.9997
11.0942
11.1066
11.0572
10.962
10.8515
10.7323
10.5935
10.4036
10.1701
9.89603
9.51734
8.8471
1093.37
1022.08
7.42216
8.15651
8.59239
8.90319
9.16756
9.40165
9.60566
9.77553
9.9055
9.98643
10.0103
9.97776
9.89243
9.76931
9.64012
9.56335
9.58579
9.81288
10.1932
10.5998
10.9114
11.0732
11.1074
11.077
10.997
10.8815
10.7442
10.5883
10.3961
10.1685
9.89747
9.51399
8.79857
1092.78
1022.03
7.36656
8.10954
8.55096
8.86633
9.13615
9.37794
9.59265
9.77585
9.92417
10.0275
10.0746
10.0647
9.99441
9.87321
9.72237
9.59041
9.54666
9.62868
9.87438
10.2293
10.5759
10.8278
10.9826
11.0226
10.9781
10.8714
10.7291
10.5623
10.3723
10.1522
9.87887
9.45167
8.62631
1092.26
1021.88
7.29686
8.05803
8.5083
8.82848
9.10309
9.3519
9.57652
9.77328
9.93791
10.0643
10.1452
10.167
10.128
10.0277
9.87516
9.70391
9.57409
9.56013
9.68853
9.95544
10.2537
10.501
10.6797
10.7824
10.81
10.7703
10.6711
10.5224
10.3389
10.1187
9.83655
9.39433
8.53253
1092.05
1021.7
7.22186
8.00206
8.46151
8.78663
9.06601
9.32147
9.554
9.76109
9.94009
10.0922
10.2062
10.2757
10.2885
10.2383
10.1162
9.92998
9.72607
9.58557
9.58164
9.73783
9.98716
10.2336
10.4343
10.5729
10.6427
10.6466
10.5845
10.464
10.2972
10.0896
9.82329
9.39344
8.53554
1092.05
1021.51
7.15039
7.9488
8.41788
8.74772
9.03121
9.2913
9.52977
9.74497
9.93549
10.1
10.2427
10.3518
10.423
10.4423
10.3938
10.2629
10.05
9.79817
9.61831
9.59161
9.71663
9.93757
10.1715
10.3647
10.4853
10.5304
10.5083
10.4192
10.279
10.0881
9.82821
9.41998
8.59889
1092.32
1021.36
7.09301
7.90343
8.37919
8.71273
8.9999
9.26401
9.50709
9.72795
9.92624
10.1027
10.2588
10.396
10.5081
10.5897
10.6228
10.5902
10.4747
10.2704
10.0022
9.74556
9.64877
9.68822
9.8389
10.0593
10.2669
10.3984
10.4369
10.3992
10.2797
10.0974
9.8558
9.47506
8.71082
1092.82
1021.27
7.04942
7.86732
8.34704
8.68321
8.97337
9.24037
9.48639
9.71061
9.91331
10.0959
10.2598
10.4085
10.5491
10.6715
10.7625
10.812
10.804
10.7248
10.5673
10.343
10.0624
9.82508
9.7563
9.80817
9.95993
10.1558
10.299
10.3375
10.2764
10.1288
9.91233
9.57104
8.89457
1093.5
1021.24
7.02749
7.84338
8.32319
8.66045
8.95272
9.22182
9.46973
9.69566
9.90022
10.0856
10.2546
10.4097
10.5555
10.6921
10.8171
10.919
10.9873
11.0082
10.9725
10.8694
10.6855
10.4228
10.1112
9.90208
9.88348
9.95449
10.0965
10.2162
10.2395
10.1498
9.95765
9.65384
9.07321
1094.15
1021.26
7.02078
7.8259
8.30255
8.64043
8.93452
9.20527
9.45451
9.68127
9.88603
10.0711
10.2397
10.3967
10.5477
10.6919
10.8248
10.9435
11.0449
11.1246
11.1722
11.1716
11.1112
10.955
10.7124
10.4134
10.1123
9.98804
10.0326
10.1244
10.1803
10.1448
9.99368
9.73311
9.22054
1094.49
1021.33
7.02426
7.81461
8.2865
8.62402
8.91892
9.19073
9.44091
9.66821
9.87268
10.0561
10.2215
10.3735
10.5184
10.6576
10.79
10.9148
11.031
11.1366
11.2246
11.2846
11.3004
11.2547
11.114
10.8825
10.5831
10.2983
10.1164
10.1312
10.1745
10.1461
10.0215
9.78938
9.29169
1094.51
1021.41
7.02568
7.80108
8.26753
8.60469
8.90087
9.17412
9.42564
9.654
9.85882
10.0413
10.2038
10.3502
10.4862
10.6131
10.7318
10.8444
10.9534
11.0605
11.1641
11.2564
11.3176
11.3259
11.2673
11.1112
10.8691
10.58
10.3374
10.2275
10.2052
10.1561
10.0346
9.80386
9.28402
1094.15
1021.43
7.01647
7.77918
8.24284
8.58066
8.87804
9.15277
9.40595
9.63605
9.84253
10.0262
10.1885
10.3318
10.4601
10.5727
10.6733
10.765
10.8533
10.9441
11.0431
11.1488
11.2436
11.2939
11.2705
11.1655
10.9803
10.7365
10.5066
10.3636
10.2835
10.1914
10.0502
9.79693
9.2018
1093.61
1021.43
6.99462
7.75318
8.21529
8.55358
8.85211
9.12842
9.38336
9.61544
9.82442
10.0114
10.1776
10.3243
10.4535
10.5615
10.6466
10.7144
10.7741
10.8364
10.9131
11.0056
11.101
11.1756
11.2005
11.1518
11.0204
10.8309
10.6333
10.4769
10.3561
10.2289
10.0563
9.75642
9.08071
1093.27
1021.39
6.96455
7.72219
8.184
8.5232
8.82305
9.10105
9.3578
9.5918
9.80327
9.99392
10.1652
10.3183
10.4522
10.5607
10.643
10.7016
10.7424
10.776
10.8192
10.8776
10.9482
11.0197
11.0702
11.0766
11.0157
10.8881
10.7291
10.5745
10.4306
10.2759
10.0787
9.75467
9.04733
1093.22
1021.34
6.93432
7.6911
8.15236
8.49224
8.79333
9.07293
9.33121
9.56661
9.77996
9.97397
10.1511
10.3131
10.4572
10.5783
10.6689
10.7303
10.7674
10.7904
10.8129
10.8385
10.8693
10.9068
10.9465
10.9747
10.9624
10.8941
10.7797
10.641
10.4893
10.3174
10.1029
9.76038
9.04838
1093.33
1021.3
6.90679
7.66152
8.12168
8.46195
8.76423
9.04546
9.30515
9.54143
9.75553
9.95125
10.1324
10.3018
10.4559
10.5871
10.6922
10.7656
10.8113
10.8376
10.8532
10.8617
10.8701
10.8835
10.9
10.9194
10.924
10.894
10.8149
10.6967
10.5471
10.3674
10.1437
9.79575
9.0905
1093.54
1021.27
6.88002
7.63205
8.09056
8.43046
8.73376
9.01662
9.27757
9.51413
9.72772
9.92313
10.1058
10.2804
10.4436
10.5878
10.7061
10.7959
10.8549
10.8911
10.9097
10.9124
10.9049
10.8958
10.8996
10.9129
10.9204
10.9012
10.8436
10.7401
10.5943
10.4114
10.183
9.83152
9.13137
1093.63
1021.23
6.8564
7.60363
8.05934
8.39863
8.70308
8.98786
9.25031
9.4871
9.69935
9.89237
10.0731
10.2485
10.4167
10.5721
10.7076
10.8171
10.898
10.9519
10.9803
10.9832
10.966
10.9385
10.9167
10.9151
10.9217
10.9129
10.8701
10.7792
10.6389
10.4561
10.2254
9.87176
9.17281
1093.73
1021.22
6.83946
7.57841
8.02955
8.36753
8.67293
8.95964
9.22372
9.46071
9.67105
9.86
10.0353
10.2059
10.3714
10.5317
10.6822
10.8155
10.9247
11.0082
11.0609
11.0781
11.0634
11.0256
10.9841
10.9571
10.9461
10.9367
10.9018
10.8201
10.6851
10.5033
10.2723
9.91913
9.22553
1093.89
1021.22
6.82761
7.55535
8.0007
8.33696
8.64333
8.93222
9.19834
9.43581
9.64393
9.82756
9.99485
10.1556
10.3153
10.4765
10.6365
10.7886
10.9244
11.0379
11.1207
11.1645
11.1667
11.1356
11.0854
11.0382
11.0056
10.9824
10.9442
10.8655
10.7339
10.5534
10.3222
9.97078
9.28713
1094.04
1021.25
6.82323
7.53446
7.97226
8.30637
8.61383
8.90541
9.17428
9.41277
9.6186
9.7958
9.95252
10.1015
10.2511
10.4069
10.5697
10.735
10.8937
11.0361
11.1504
11.226
11.2551
11.242
11.1997
11.1458
11.0966
11.0563
11.0081
10.9248
10.7911
10.6091
10.3764
10.0237
9.33937
1094.12
1021.29
6.82221
7.51453
7.94453
8.27651
8.58522
8.87989
9.15226
9.39251
9.5962
9.76629
9.91236
10.0471
10.1813
10.3246
10.4821
10.6528
10.8294
10.9993
11.1464
11.2538
11.3148
11.3277
11.3048
11.2561
11.1997
11.1453
11.0833
10.9898
10.85
10.6638
10.4245
10.0594
9.35996
1094.13
1021.35
6.81873
7.49252
7.91557
8.2459
8.55618
8.85477
9.13216
9.37614
9.57969
9.7444
9.87919
9.99752
10.1103
10.2324
10.3743
10.5404
10.7279
10.9226
11.1022
11.2459
11.339
11.3865
11.3891
11.3552
11.3013
11.2397
11.1662
11.0609
10.9114
10.7173
10.4685
10.0884
9.35798
1094
1021.39
6.80684
7.46602
7.88396
8.21328
8.52556
8.82901
9.11323
9.36394
9.57224
9.73854
9.86669
9.96391
10.0486
10.1421
10.2569
10.4051
10.5921
10.8063
11.0169
11.1963
11.3283
11.4075
11.4449
11.4379
11.396
11.3321
11.2448
11.1233
10.9609
10.7563
10.4951
10.0896
9.31706
1093.75
1021.39
6.78124
7.43305
7.84859
8.17759
8.49197
8.80056
9.09277
9.35293
9.56943
9.73906
9.86506
9.95395
10.0184
10.0729
10.1464
10.2621
10.4339
10.652
10.882
11.0929
11.2639
11.3873
11.4467
11.4655
11.4458
11.3858
11.2943
11.1656
10.9952
10.782
10.5092
10.0798
9.24763
1093.51
1021.36
6.74133
7.39448
7.81013
8.13937
8.45571
8.76927
9.07017
9.34296
9.57397
9.75625
9.88885
9.97364
10.0219
10.0518
10.086
10.1499
10.2775
10.4682
10.692
10.9161
11.1162
11.2797
11.3948
11.4481
11.4513
11.4139
11.3308
11.2021
11.0281
10.8087
10.5272
10.0813
9.23039
1093.41
1021.28
6.69293
7.35205
7.76921
8.09906
8.41711
8.73469
9.04295
9.3279
9.57597
9.77925
9.93024
10.0276
10.0775
10.0911
10.0914
10.108
10.1765
10.3141
10.5116
10.7405
10.9668
11.1657
11.3161
11.4084
11.4415
11.4181
11.3481
11.2242
11.0519
10.8334
10.5516
10.1031
9.23744
1093.41
1021.19
6.64143
7.30831
7.72764
8.05841
8.37812
8.69905
9.01322
9.30892
9.57498
9.8007
9.97687
10.0999
10.1718
10.1968
10.1906
10.177
10.1863
10.2465
10.3631
10.5408
10.7598
10.9871
11.1817
11.3191
11.3914
11.4006
11.344
11.23
11.0674
10.8566
10.5803
10.1386
9.28169
1093.53
1021.1
6.59368
7.26644
7.68727
8.01865
8.34026
8.66453
8.98335
9.2865
9.56569
9.81246
10.0148
10.1686
10.2738
10.3316
10.3473
10.3363
10.3184
10.3134
10.3555
10.4463
10.5888
10.7848
10.9952
11.1769
11.2998
11.3509
11.3289
11.2381
11.0878
10.8863
10.619
10.1925
9.35198
1093.74
1021.02
6.55429
7.22887
7.64975
7.98101
8.30512
8.63369
8.9575
9.26673
9.55525
9.81785
10.0405
10.2215
10.3612
10.4591
10.5165
10.5392
10.5337
10.5081
10.4809
10.4931
10.5707
10.6915
10.8486
11.0209
11.1709
11.2659
11.2873
11.2359
11.1065
10.9202
10.6679
10.2619
9.45306
1094.06
1020.98
6.5285
7.19849
7.6159
7.94659
8.27417
8.60873
8.93922
9.25474
9.55035
9.82042
10.0561
10.2562
10.4237
10.5587
10.6595
10.7265
10.7588
10.7545
10.7205
10.6767
10.6592
10.7119
10.8328
10.9693
11.1053
11.2115
11.2599
11.2342
11.126
10.9552
10.7192
10.3364
9.56713
1094.42
1020.98
6.51929
7.1737
7.58434
7.91342
8.24485
8.58788
8.9287
9.25322
9.55223
9.82546
10.0668
10.2754
10.458
10.618
10.7538
10.8637
10.9434
10.9842
10.9802
10.9411
10.8828
10.8534
10.8781
10.9758
11.102
11.206
11.2577
11.2412
11.151
10.994
10.772
10.4119
9.67953
1094.75
1021.03
6.52342
7.15759
7.55671
7.8828
8.21828
8.57201
8.92775
9.26259
9.57056
9.84685
10.0871
10.2936
10.477
10.6449
10.7985
10.9376
11.0583
11.1486
11.195
11.1932
11.156
11.1009
11.0619
11.07
11.1263
11.2108
11.2667
11.2643
11.1866
11.0405
10.8269
10.4762
9.76606
1094.82
1021.11
6.54158
7.14592
7.52837
7.84846
8.18706
8.55445
8.92994
9.28532
9.60522
9.88339
10.1184
10.3171
10.4925
10.6548
10.8108
10.9628
11.1075
11.2322
11.3219
11.3654
11.3638
11.3312
11.2833
11.2523
11.2592
11.2985
11.334
11.32
11.2376
11.0897
10.8718
10.5141
9.77187
1094.73
1021.2
6.56105
7.13575
7.49805
7.80771
8.14673
8.52823
8.92735
9.30749
9.64178
9.9225
10.151
10.3402
10.5044
10.6556
10.8043
10.9575
11.1114
11.2554
11.3746
11.4545
11.4929
11.4919
11.4636
11.4317
11.4196
11.4275
11.4288
11.388
11.289
11.1305
10.9003
10.5169
9.74094
1094.35
1021.26
6.57628
7.12466
7.46502
7.7592
8.09311
8.48628
8.9113
9.31887
9.67624
9.96205
10.1891
10.3709
10.5231
10.6602
10.7969
10.9411
11.0913
11.2405
11.3736
11.4794
11.5555
11.5918
11.5955
11.5803
11.5627
11.5463
11.5156
11.4483
11.3315
11.1591
10.9112
10.4984
9.65007
1093.99
1021.3
6.58761
7.11555
7.43294
7.70531
8.02419
8.42011
8.8694
9.31022
9.69045
9.99661
10.2313
10.413