/*--------------------------------*- C++ -*----------------------------------*\
| =========                 |                                                 |
| \\      /  F ield         | OpenFOAM: The Open Source CFD Toolbox           |
|  \\    /   O peration     | Version:  2.0.x                                 |
|   \\  /    A nd           | Web:      www.OpenFOAM.org                      |
|    \\/     M anipulation  |                                                 |
\*---------------------------------------------------------------------------*/
FoamFile
{
    version     2.0;
    format      ascii;
    class       surfaceScalarField;
    location    "1000";
    object      phi;
}
// * * * * * * * * * * * * * * * * * * * * * * * * * * * * * * * * * * * * * //

dimensions      [1 0 -1 0 0 0 0];

internalField   nonuniform List<scalar> 
228225
(
-3.91024e-06
2.50457e-06
1.3327e-06
-9.41143e-06
3.14421e-06
2.35696e-06
-1.435e-05
2.36958e-06
2.56891e-06
-1.78872e-05
9.89508e-07
2.54772e-06
-1.93698e-05
-9.831e-07
2.46568e-06
-1.9155e-05
-2.56825e-06
2.35346e-06
-1.72345e-05
-4.19069e-06
2.27013e-06
-1.38372e-05
-5.58119e-06
2.18386e-06
-9.28329e-06
-6.69038e-06
2.13642e-06
-3.94029e-06
-7.49231e-06
2.14927e-06
1.89224e-06
-7.96807e-06
2.13551e-06
7.90704e-06
-8.1387e-06
2.12387e-06
1.38275e-05
-8.0475e-06
2.12703e-06
1.9646e-05
-7.92373e-06
2.10515e-06
2.52675e-05
-7.65774e-06
2.03627e-06
3.05691e-05
-7.31038e-06
2.00867e-06
3.54546e-05
-6.90025e-06
2.01473e-06
3.97835e-05
-6.34562e-06
2.01673e-06
4.35067e-05
-5.7459e-06
2.02268e-06
4.65631e-05
-5.09047e-06
2.03405e-06
4.90075e-05
-4.48299e-06
2.03855e-06
5.06252e-05
-3.68642e-06
2.06864e-06
5.15669e-05
-3.03316e-06
2.0915e-06
5.18156e-05
-2.36997e-06
2.12121e-06
5.13004e-05
-1.62627e-06
2.14143e-06
5.00007e-05
-8.77663e-07
2.17736e-06
4.79288e-05
-1.44147e-07
2.21595e-06
4.48129e-05
8.58214e-07
2.2577e-06
4.10263e-05
1.47801e-06
2.30848e-06
3.62739e-05
2.38761e-06
2.36478e-06
3.05711e-05
3.25739e-06
2.44537e-06
2.38851e-05
4.16099e-06
2.5249e-06
1.61276e-05
5.11806e-06
2.63931e-06
7.45243e-06
6.05396e-06
2.62103e-06
5.79211e-06
1.66031e-06
7.76009e-07
9.34634e-07
7.93843e-07
8.96468e-07
1.44817e-06
1.57548e-06
1.06358e-06
3.35305e-07
1.86705e-06
2.11542e-06
-1.94498e-06
1.88253e-06
4.20524e-06
-4.85303e-06
1.78e-06
7.23454e-06
-7.25202e-06
1.65436e-06
1.0937e-05
-9.42025e-06
1.52701e-06
1.49387e-05
-1.09667e-05
1.38372e-06
1.89598e-05
-1.19243e-05
1.21272e-06
2.28423e-05
-1.24171e-05
1.04226e-06
2.65273e-05
-1.25783e-05
9.25078e-07
2.99876e-05
-1.24491e-05
8.50045e-07
3.31841e-05
-1.20558e-05
8.11769e-07
3.60715e-05
-1.16221e-05
8.10914e-07
3.85959e-05
-1.10415e-05
8.59249e-07
4.07306e-05
-1.03426e-05
8.97424e-07
4.23851e-05
-9.46923e-06
9.14427e-07
4.364e-05
-8.54479e-06
9.44202e-07
4.45151e-05
-7.59161e-06
9.70557e-07
4.50378e-05
-6.60972e-06
9.96453e-07
4.51266e-05
-5.59724e-06
1.02537e-06
4.49774e-05
-4.58332e-06
1.04593e-06
4.44088e-05
-3.53828e-06
1.07365e-06
4.34098e-05
-2.48258e-06
1.1115e-06
4.20183e-05
-1.40329e-06
1.16845e-06
3.99454e-05
-2.81477e-08
1.2233e-06
3.75517e-05
9.42713e-07
1.30674e-06
3.46391e-05
2.31585e-06
1.45488e-06
3.10863e-05
3.4408e-06
1.58992e-06
2.70549e-05
4.67356e-06
1.74532e-06
2.23632e-05
6.03627e-06
1.91265e-06
1.69077e-05
7.50244e-06
2.1139e-06
1.06739e-05
9.06252e-06
2.28919e-06
4.31867e-06
1.01894e-05
2.2196e-06
8.74838e-06
1.36239e-06
6.12943e-07
-2.38728e-07
5.60359e-07
2.99697e-06
-1.98385e-06
1.04792e-06
6.99373e-06
-4.85296e-06
1.19143e-06
1.18733e-05
-7.98817e-06
1.16353e-06
1.66722e-05
-1.0706e-05
1.05398e-06
2.12294e-05
-1.26752e-05
8.66009e-07
2.50099e-05
-1.3914e-05
7.13169e-07
2.79751e-05
-1.45698e-05
6.37825e-07
3.01773e-05
-1.47465e-05
6.19995e-07
3.17466e-05
-1.46033e-05
6.16885e-07
3.28729e-05
-1.43224e-05
6.17735e-07
3.37068e-05
-1.39006e-05
6.17567e-07
3.43827e-05
-1.33594e-05
6.27596e-07
3.48562e-05
-1.27213e-05
6.25673e-07
3.51449e-05
-1.19406e-05
6.10307e-07
3.52309e-05
-1.10252e-05
5.96623e-07
3.52196e-05
-1.00411e-05
5.83188e-07
3.51408e-05
-9.02317e-06
5.57066e-07
3.49528e-05
-7.93422e-06
5.30626e-07
3.46106e-05
-6.7741e-06
5.06489e-07
3.40817e-05
-5.55554e-06
4.87119e-07
3.3323e-05
-4.30084e-06
4.76195e-07
3.23457e-05
-3.03835e-06
4.77303e-07
3.11117e-05
-1.74193e-06
4.9326e-07
2.94367e-05
-2.50558e-07
5.22178e-07
2.76715e-05
1.13993e-06
5.97083e-07
2.56266e-05
2.31238e-06
6.75073e-07
2.35846e-05
3.57861e-06
7.79189e-07
2.11084e-05
4.99758e-06
9.19274e-07
1.82264e-05
6.42801e-06
1.1274e-06
1.48195e-05
8.05688e-06
1.38619e-06
1.08364e-05
9.84254e-06
1.64283e-06
6.43795e-06
1.15876e-05
1.87328e-06
2.32255e-06
1.24554e-05
1.84921e-06
9.98923e-06
1.0817e-06
6.42659e-07
-1.2463e-06
3.64763e-07
3.28874e-06
-5.21102e-06
5.80944e-07
7.11359e-06
-9.19774e-06
5.19826e-07
1.09967e-05
-1.22899e-05
4.18508e-07
1.4211e-05
-1.42709e-05
3.50516e-07
1.65592e-05
-1.53582e-05
3.34734e-07
1.81656e-05
-1.58711e-05
3.50683e-07
1.92629e-05
-1.60414e-05
3.74218e-07
2.01202e-05
-1.59977e-05
3.93929e-07
2.08843e-05
-1.57661e-05
3.98617e-07
2.15571e-05
-1.53827e-05
3.87496e-07
2.21589e-05
-1.48626e-05
3.60159e-07
2.26735e-05
-1.42006e-05
3.26643e-07
2.30559e-05
-1.33939e-05
2.90211e-07
2.33519e-05
-1.24912e-05
2.54491e-07
2.3595e-05
-1.14906e-05
2.22209e-07
2.37336e-05
-1.037e-05
1.90135e-07
2.36917e-05
-9.13998e-06
1.58659e-07
2.34417e-05
-7.81102e-06
1.26788e-07
2.2983e-05
-6.41063e-06
9.50515e-08
2.23356e-05
-4.97457e-06
6.63212e-08
2.15323e-05
-3.54327e-06
4.56323e-08
2.05551e-05
-2.09882e-06
3.75869e-08
1.93453e-05
-5.76161e-07
4.39149e-08
1.81308e-05
8.81089e-07
8.26998e-08
1.71014e-05
2.03652e-06
1.32675e-07
1.58822e-05
3.32426e-06
2.07219e-07
1.45015e-05
4.61439e-06
3.44732e-07
1.29927e-05
5.98386e-06
5.22423e-07
1.11307e-05
7.55602e-06
7.33753e-07
8.89433e-06
9.32923e-06
9.63888e-07
6.20204e-06
1.13204e-05
1.21428e-06
3.31406e-06
1.3064e-05
1.41138e-06
7.99207e-07
1.36136e-05
1.35635e-06
1.01459e-05
6.4251e-07
1.15045e-06
-2.54652e-06
1.49715e-07
3.66905e-06
-7.91728e-06
1.87618e-07
6.3613e-06
-1.2067e-05
1.77015e-07
8.50365e-06
-1.46332e-05
2.00923e-07
9.99226e-06
-1.60072e-05
2.47652e-07
1.10722e-05
-1.67183e-05
2.80204e-07
1.19819e-05
-1.70646e-05
2.83743e-07
1.28281e-05
-1.71601e-05
2.72614e-07
1.36404e-05
-1.70605e-05
2.50344e-07
1.44083e-05
-1.67554e-05
2.21403e-07
1.51021e-05
-1.62692e-05
1.92632e-07
1.57008e-05
-1.56288e-05
1.67492e-07
1.61915e-05
-1.48266e-05
1.35199e-07
1.65027e-05
-1.38133e-05
1.08247e-07
1.66008e-05
-1.267e-05
8.06155e-08
1.6495e-05
-1.14335e-05
4.86296e-08
1.61964e-05
-1.00849e-05
1.34002e-08
1.5723e-05
-8.64055e-06
-2.60682e-08
1.51071e-05
-7.12371e-06
-7.14077e-08
1.43708e-05
-5.55165e-06
-1.22752e-07
1.3521e-05
-3.94912e-06
-1.75751e-07
1.25709e-05
-2.3711e-06
-2.2219e-07
1.15826e-05
-8.55296e-07
-2.55311e-07
1.07956e-05
4.80819e-07
-2.69996e-07
1.03803e-05
1.55583e-06
-2.59574e-07
9.9118e-06
2.72801e-06
-2.23078e-07
9.44097e-06
3.93756e-06
-1.42576e-07
8.85468e-06
5.2373e-06
-3.67327e-08
8.0627e-06
6.66018e-06
1.1552e-07
7.01113e-06
8.28066e-06
3.2679e-07
5.58013e-06
1.01793e-05
5.80821e-07
3.7514e-06
1.23005e-05
8.48518e-07
1.84552e-06
1.39192e-05
1.05044e-06
2.58748e-07
1.41744e-05
1.02584e-06
9.91905e-06
4.85611e-07
7.86122e-07
-3.40622e-06
7.34859e-08
2.28035e-06
-9.49836e-06
8.67842e-08
3.73574e-06
-1.36185e-05
9.60241e-08
4.9162e-06
-1.59367e-05
1.22989e-07
5.8558e-06
-1.71045e-05
1.57706e-07
6.61735e-06
-1.76684e-05
1.88495e-07
7.24043e-06
-1.78931e-05
2.05379e-07
7.74798e-06
-1.78806e-05
2.12927e-07
8.17332e-06
-1.76945e-05
2.08698e-07
8.53557e-06
-1.7311e-05
1.93253e-07
8.84468e-06
-1.6748e-05
1.69728e-07
9.0622e-06
-1.59848e-05
1.38474e-07
9.15704e-06
-1.50229e-05
1.01384e-07
9.18854e-06
-1.39101e-05
6.52023e-08
9.13581e-06
-1.26509e-05
3.36562e-08
8.95592e-06
-1.12563e-05
2.69025e-09
8.66486e-06
-9.76442e-06
-2.94857e-08
8.2939e-06
-8.20416e-06
-6.55072e-08
7.87768e-06
-6.59834e-06
-1.09233e-07
7.43699e-06
-4.94703e-06
-1.64018e-07
6.9773e-06
-3.25999e-06
-2.29564e-07
6.50248e-06
-1.59801e-06
-2.9837e-07
6.08535e-06
-8.32914e-08
-3.54974e-07
5.95337e-06
9.93302e-07
-3.80601e-07
5.77769e-06
2.11665e-06
-3.85232e-07
5.64853e-06
3.22225e-06
-3.65183e-07
5.51029e-06
4.39541e-06
-3.19728e-07
5.30778e-06
5.67971e-06
-2.40021e-07
4.94365e-06
7.14417e-06
-1.20006e-07
4.30719e-06
8.87196e-06
4.50174e-08
3.29592e-06
1.0927e-05
2.6343e-07
2.00764e-06
1.30905e-05
4.98141e-07
7.91402e-07
1.44623e-05
6.73085e-07
-1.22604e-07
1.44202e-05
6.68032e-07
9.55718e-06
2.39264e-07
7.04536e-07
-4.09393e-06
-1.69176e-08
1.93675e-06
-1.06996e-05
-3.10349e-08
3.20374e-06
-1.48844e-05
-1.10684e-09
4.30233e-06
-1.70896e-05
5.42734e-08
5.21334e-06
-1.8129e-05
1.13454e-07
5.98611e-06
-1.85938e-05
1.5263e-07
6.65152e-06
-1.87353e-05
1.76808e-07
7.23735e-06
-1.86546e-05
1.88069e-07
7.72794e-06
-1.83716e-05
1.86426e-07
8.13659e-06
-1.78937e-05
1.7404e-07
8.43384e-06
-1.71999e-05
1.5459e-07
8.5775e-06
-1.62588e-05
1.30333e-07
8.55835e-06
-1.51076e-05
1.03802e-07
8.41133e-06
-1.38366e-05
7.35455e-08
8.17747e-06
-1.24611e-05
4.39821e-08
7.89361e-06
-1.09935e-05
2.09634e-08
7.58819e-06
-9.46192e-06
2.85697e-09
7.27705e-06
-7.88045e-06
-1.26291e-08
6.96038e-06
-6.2513e-06
-3.04542e-08
6.63733e-06
-4.56628e-06
-5.77868e-08
6.29651e-06
-2.81763e-06
-1.01638e-07
5.93818e-06
-1.07699e-06
-1.62787e-07
5.74354e-06
3.41856e-07
-2.30592e-07
5.53984e-06
1.4762e-06
-2.79286e-07
5.31163e-06
2.66452e-06
-3.19756e-07
5.06076e-06
3.81228e-06
-3.39259e-07
4.80801e-06
4.9811e-06
-3.33049e-07
4.52254e-06
6.26169e-06
-2.96637e-07
4.12978e-06
7.75968e-06
-2.22885e-07
3.52795e-06
9.57504e-06
-1.01406e-07
2.66307e-06
1.17263e-05
6.53924e-08
1.67381e-06
1.38368e-05
2.42912e-07
7.79968e-07
1.49796e-05
3.76384e-07
8.06918e-08
1.47251e-05
3.94106e-07
9.50674e-06
1.31128e-07
7.02576e-07
-4.75998e-06
-3.66553e-08
1.95053e-06
-1.19277e-05
-1.99562e-08
3.2255e-06
-1.61887e-05
2.91954e-08
4.34186e-06
-1.82771e-05
7.11659e-08
5.28667e-06
-1.91824e-05
1.08547e-07
6.0842e-06
-1.95299e-05
1.38502e-07
6.73919e-06
-1.95561e-05
1.65734e-07
7.2621e-06
-1.93627e-05
1.8516e-07
7.62292e-06
-1.89251e-05
1.92698e-07
7.79405e-06
-1.82547e-05
1.89866e-07
7.78325e-06
-1.73643e-05
1.75153e-07
7.66751e-06
-1.629e-05
1.46884e-07
7.51681e-06
-1.50653e-05
1.08428e-07
7.31054e-06
-1.36972e-05
6.67531e-08
7.05536e-06
-1.22313e-05
2.5372e-08
6.78079e-06
-1.07065e-05
-1.24412e-08
6.50477e-06
-9.14422e-06
-4.1731e-08
6.24088e-06
-7.55376e-06
-6.28561e-08
5.99798e-06
-5.93029e-06
-7.81831e-08
5.76764e-06
-4.24393e-06
-9.20843e-08
5.5204e-06
-2.45895e-06
-1.11529e-07
5.24002e-06
-6.52872e-07
-1.43808e-07
5.06221e-06
7.02491e-07
-1.82901e-07
4.81658e-06
1.9538e-06
-2.32043e-07
4.54419e-06
3.21892e-06
-2.8209e-07
4.24117e-06
4.43154e-06
-3.16311e-07
3.91913e-06
5.63303e-06
-3.29964e-07
3.56519e-06
6.93415e-06
-3.18603e-07
3.13078e-06
8.46979e-06
-2.75786e-07
2.54704e-06
1.03516e-05
-1.92928e-07
1.81551e-06
1.25322e-05
-7.44606e-08
1.07998e-06
1.45246e-05
4.76574e-08
4.48753e-07
1.5473e-05
1.37729e-07
-2.56997e-08
1.50371e-05
1.62296e-07
9.46732e-06
1.37101e-08
6.47956e-07
-5.36917e-06
-3.89146e-08
1.67622e-06
-1.29699e-05
1.38912e-08
2.64813e-06
-1.72419e-05
8.11931e-08
3.47183e-06
-1.92206e-05
1.19707e-07
4.17664e-06
-2.00298e-05
1.42573e-07
4.77998e-06
-2.02933e-05
1.59989e-07
5.27668e-06
-2.023e-05
1.77211e-07
5.63192e-06
-1.99098e-05
1.91886e-07
5.83923e-06
-1.93316e-05
1.99105e-07
5.88222e-06
-1.84943e-05
1.96547e-07
5.77545e-06
-1.74432e-05
1.85647e-07
5.57013e-06
-1.62458e-05
1.61095e-07
5.27985e-06
-1.49056e-05
1.30507e-07
4.94829e-06
-1.34559e-05
9.02424e-08
4.61624e-06
-1.19448e-05
4.54914e-08
4.31794e-06
-1.04102e-05
1.94928e-09
4.07625e-06
-8.86682e-06
-3.57697e-08
3.903e-06
-7.31546e-06
-6.51094e-08
3.79205e-06
-5.7351e-06
-8.43076e-08
3.73364e-06
-4.09162e-06
-9.39801e-08
3.73265e-06
-2.36068e-06
-9.7364e-08
3.79301e-06
-6.11575e-07
-1.0175e-07
3.79114e-06
8.21574e-07
-1.17309e-07
3.6523e-06
2.24179e-06
-1.49239e-07
3.43183e-06
3.63276e-06
-1.93468e-07
3.17257e-06
4.92706e-06
-2.36363e-07
2.88757e-06
6.1862e-06
-2.68272e-07
2.57043e-06
7.53329e-06
-2.82105e-07
2.19408e-06
9.11658e-06
-2.70574e-07
1.72383e-06
1.10483e-05
-2.26521e-07
1.18411e-06
1.32253e-05
-1.53488e-07
6.83908e-07
1.51025e-05
-7.77871e-08
2.59618e-07
1.59208e-05
-2.362e-08
-4.61814e-08
1.53417e-05
1.06019e-09
9.47667e-06
-5.55334e-08
5.07051e-07
-5.87199e-06
-4.35101e-09
1.23731e-06
-1.37903e-05
9.00683e-08
1.84645e-06
-1.80146e-05
1.63537e-07
2.30052e-06
-1.98641e-05
1.89405e-07
2.6469e-06
-2.05734e-05
1.97197e-07
2.90507e-06
-2.07548e-05
2.03328e-07
3.07322e-06
-2.06097e-05
2.11459e-07
3.1291e-06
-2.01833e-05
2.1754e-07
3.08187e-06
-1.95034e-05
2.19017e-07
2.95854e-06
-1.85843e-05
2.13259e-07
2.76869e-06
-1.74509e-05
1.97588e-07
2.51651e-06
-1.61727e-05
1.7903e-07
2.24445e-06
-1.47793e-05
1.45763e-07
1.99071e-06
-1.33072e-05
1.0506e-07
1.78274e-06
-1.1798e-05
6.10509e-08
1.63797e-06
-1.0283e-05
1.75691e-08
1.56988e-06
-8.77553e-06
-2.32482e-08
1.5749e-06
-7.26542e-06
-5.51131e-08
1.6446e-06
-5.72771e-06
-7.71312e-08
1.77136e-06
-4.12806e-06
-9.0386e-08
1.9539e-06
-2.44741e-06
-9.58584e-08
2.17059e-06
-7.31699e-07
-9.66273e-08
2.24278e-06
8.5078e-07
-1.01449e-07
2.24467e-06
2.35711e-06
-1.17267e-07
2.17927e-06
3.8413e-06
-1.43185e-07
2.04487e-06
5.23767e-06
-1.76256e-07
1.85467e-06
6.5851e-06
-2.08742e-07
1.6198e-06
8.00086e-06
-2.32745e-07
1.34107e-06
9.6355e-06
-2.40226e-07
1.01634e-06
1.15973e-05
-2.24313e-07
6.63955e-07
1.3764e-05
-1.86367e-07
3.42625e-07
1.55692e-05
-1.4546e-07
6.95845e-08
1.63126e-05
-1.18774e-07
-1.02737e-07
1.56137e-05
-9.97543e-08
9.46644e-06
-9.25125e-08
2.75374e-07
-6.18802e-06
4.05414e-08
5.61577e-07
-1.42501e-05
1.73455e-07
7.37633e-07
-1.84402e-05
2.49507e-07
8.35593e-07
-2.02285e-05
2.66424e-07
8.98568e-07
-2.08981e-05
2.61703e-07
9.31272e-07
-2.10436e-05
2.56036e-07
9.24131e-07
-2.08556e-05
2.52992e-07
8.774e-07
-2.03879e-05
2.51328e-07
7.92481e-07
-1.96668e-05
2.48325e-07
6.79127e-07
-1.87117e-05
2.40797e-07
5.54915e-07
-1.75532e-05
2.26427e-07
4.23268e-07
-1.62463e-05
2.05178e-07
3.03106e-07
-1.48386e-05
1.79428e-07
2.13368e-07
-1.3365e-05
1.47479e-07
1.63577e-07
-1.18591e-05
1.1086e-07
1.57383e-07
-1.03494e-05
7.25453e-08
1.97584e-07
-8.85314e-06
3.7359e-08
2.89621e-07
-7.36351e-06
5.99298e-09
4.34295e-07
-5.85122e-06
-2.12287e-08
6.31015e-07
-4.28226e-06
-4.25894e-08
8.77005e-07
-2.63645e-06
-5.70407e-08
1.14083e-06
-9.30362e-07
-6.52534e-08
1.29255e-06
7.68085e-07
-6.91069e-08
1.40239e-06
2.32396e-06
-7.67836e-08
1.45827e-06
3.87956e-06
-9.42245e-08
1.45414e-06
5.3629e-06
-1.21184e-07
1.37493e-06
6.81675e-06
-1.52522e-07
1.22722e-06
8.33002e-06
-1.81536e-07
1.02263e-06
1.00407e-05
-2.00708e-07
7.77109e-07
1.20459e-05
-2.03226e-07
5.13401e-07
1.42164e-05
-1.88795e-07
2.67567e-07
1.59857e-05
-1.70668e-07
5.62699e-08
1.66859e-05
-1.62169e-07
-7.2959e-08
1.58923e-05
-1.49547e-07
9.50055e-06
-1.07068e-07
2.9903e-08
-6.30576e-06
8.7785e-08
-7.56735e-08
-1.43797e-05
2.35142e-07
-2.73442e-07
-1.85545e-05
3.12052e-07
-4.91608e-07
-2.03435e-05
3.33141e-07
-6.97404e-07
-2.10241e-05
3.31736e-07
-8.89674e-07
-2.11779e-05
3.26631e-07
-1.07127e-06
-2.09963e-05
3.22273e-07
-1.24234e-06
-2.05372e-05
3.20397e-07
-1.39346e-06
-1.98345e-05
3.18778e-07
-1.50224e-06
-1.89172e-05
3.14256e-07
-1.54553e-06
-1.78145e-05
3.04556e-07
-1.52433e-06
-1.65555e-05
2.88063e-07
-1.44816e-06
-1.51798e-05
2.64945e-07
-1.324e-06
-1.37253e-05
2.36101e-07
-1.16158e-06
-1.22242e-05
2.0266e-07
-9.73403e-07
-1.07044e-05
1.66733e-07
-7.72552e-07
-9.18474e-06
1.30715e-07
-5.64272e-07
-7.66877e-06
9.69392e-08
-3.41865e-07
-6.14106e-06
6.73889e-08
-9.37282e-08
-4.57328e-06
4.28377e-08
1.86792e-07
-2.94002e-06
2.30024e-08
4.89728e-07
-1.24055e-06
7.19404e-09
7.82356e-07
4.80729e-07
-5.32505e-09
1.02137e-06
2.10267e-06
-1.77626e-08
1.18136e-06
3.75411e-06
-3.458e-08
1.24969e-06
5.34973e-06
-5.51971e-08
1.23206e-06
6.91952e-06
-8.51634e-08
1.13171e-06
8.54718e-06
-1.16829e-07
9.61088e-07
1.03558e-05
-1.44465e-07
7.41004e-07
1.24273e-05
-1.61339e-07
4.9897e-07
1.46235e-05
-1.65067e-07
2.69564e-07
1.63786e-05
-1.63588e-07
7.65129e-08
1.70463e-05
-1.67282e-07
-4.24059e-08
1.61707e-05
-1.59515e-07
9.55453e-06
-9.63896e-08
-1.28835e-07
-6.28816e-06
1.11164e-07
-3.84719e-07
-1.43813e-05
2.57491e-07
-6.95748e-07
-1.85714e-05
3.27852e-07
-1.00522e-06
-2.03833e-05
3.4924e-07
-1.29307e-06
-2.10913e-05
3.55055e-07
-1.55519e-06
-2.12745e-05
3.5862e-07
-1.78355e-06
-2.11313e-05
3.634e-07
-1.9677e-06
-2.07213e-05
3.68221e-07
-2.09591e-06
-2.00808e-05
3.74465e-07
-2.15528e-06
-1.92391e-05
3.81215e-07
-2.13237e-06
-1.8224e-05
3.8654e-07
-2.01688e-06
-1.70588e-05
3.87734e-07
-1.81413e-06
-1.57644e-05
3.81787e-07
-1.54304e-06
-1.43633e-05
3.66829e-07
-1.22943e-06
-1.28804e-05
3.42595e-07
-9.02579e-07
-1.13416e-05
3.10371e-07
-5.87966e-07
-9.77233e-06
2.72929e-07
-2.9757e-07
-8.19308e-06
2.3387e-07
-2.57332e-08
-6.60941e-06
1.96456e-07
2.4356e-07
-5.00541e-06
1.62779e-07
5.22906e-07
-3.3529e-06
1.33463e-07
8.08021e-07
-1.63373e-06
1.07995e-07
1.07921e-06
1.24318e-07
8.51412e-08
1.34471e-06
1.77336e-06
6.37296e-08
1.53085e-06
3.52734e-06
4.05545e-08
1.6106e-06
5.25746e-06
1.24487e-08
1.58787e-06
6.95654e-06
-1.43687e-08
1.47069e-06
8.71493e-06
-5.06448e-08
1.27476e-06
1.0636e-05
-8.43355e-08
1.02254e-06
1.27895e-05
-1.10016e-07
7.4194e-07
1.5029e-05
-1.24886e-07
4.68679e-07
1.67857e-05
-1.33826e-07
2.29789e-07
1.74304e-05
-1.45325e-07
5.32323e-08
1.64894e-05
-1.422e-07
9.67979e-06
-7.20287e-08
-1.68886e-07
-6.25084e-06
1.31473e-07
-4.6099e-07
-1.4359e-05
2.69674e-07
-7.64908e-07
-1.85983e-05
3.30763e-07
-1.04369e-06
-2.04542e-05
3.49573e-07
-1.28747e-06
-2.1202e-05
3.54426e-07
-1.49249e-06
-2.14265e-05
3.57032e-07
-1.65142e-06
-2.13349e-05
3.62426e-07
-1.75491e-06
-2.09893e-05
3.71448e-07
-1.79304e-06
-2.04261e-05
3.83416e-07
-1.75881e-06
-1.96713e-05
3.97883e-07
-1.64951e-06
-1.87469e-05
4.13571e-07
-1.4667e-06
-1.76701e-05
4.28411e-07
-1.2147e-06
-1.6456e-05
4.39574e-07
-9.02679e-07
-1.51194e-05
4.44086e-07
-5.46195e-07
-1.36765e-05
4.39545e-07
-1.66491e-07
-1.21461e-05
4.24745e-07
2.11139e-07
-1.05501e-05
4.00061e-07
5.61959e-07
-8.91151e-06
3.67555e-07
8.7166e-07
-7.24971e-06
3.30555e-07
1.14194e-06
-5.56817e-06
2.92418e-07
1.38331e-06
-3.84985e-06
2.55524e-07
1.60152e-06
-2.07301e-06
2.21013e-07
1.79775e-06
-2.60722e-07
1.88751e-07
2.01557e-06
1.39489e-06
1.60598e-07
2.17404e-06
3.23634e-06
1.32488e-07
2.24316e-06
5.0858e-06
1.02489e-07
2.19949e-06
6.93054e-06
6.96452e-08
2.05095e-06
8.83178e-06
3.16643e-08
1.80849e-06
1.08857e-05
-7.30401e-09
1.49365e-06
1.31467e-05
-4.23812e-08
1.13404e-06
1.54566e-05
-6.80171e-08
7.69598e-07
1.72358e-05
-8.56625e-08
4.32913e-07
1.78696e-05
-1.02484e-07
1.51908e-07
1.68747e-05
-1.04343e-07
9.87125e-06
-3.95503e-08
-1.53721e-07
-6.23128e-06
1.34068e-07
-4.10309e-07
-1.43581e-05
2.55632e-07
-6.48936e-07
-1.86543e-05
2.94645e-07
-8.36845e-07
-2.05756e-05
3.09256e-07
-9.79442e-07
-2.13745e-05
3.15047e-07
-1.07879e-06
-2.16459e-05
3.18712e-07
-1.13519e-06
-2.16027e-05
3.24205e-07
-1.14728e-06
-2.13104e-05
3.33107e-07
-1.11396e-06
-2.08058e-05
3.46363e-07
-1.03478e-06
-2.01145e-05
3.64052e-07
-9.09876e-07
-1.92576e-05
3.85769e-07
-7.3851e-07
-1.82511e-05
4.09659e-07
-5.2042e-07
-1.71078e-05
4.33717e-07
-2.56184e-07
-1.58389e-05
4.55225e-07
5.09294e-08
-1.44549e-05
4.71189e-07
3.92471e-07
-1.29665e-05
4.78774e-07
7.5317e-07
-1.13867e-05
4.75859e-07
1.11145e-06
-9.73145e-06
4.61616e-07
1.44441e-06
-8.01968e-06
4.3695e-07
1.7384e-06
-6.26638e-06
4.04166e-07
1.99452e-06
-4.47198e-06
3.65958e-07
2.22105e-06
-2.62434e-06
3.24737e-07
2.40816e-06
-7.30541e-07
2.82652e-07
2.47481e-06
1.08186e-06
2.4633e-07
2.60489e-06
2.89749e-06
2.08718e-07
2.66426e-06
4.85247e-06
1.73904e-07
2.62032e-06
6.83864e-06
1.35797e-07
2.46418e-06
8.88819e-06
9.96881e-08
2.20247e-06
1.1088e-05
5.93832e-08
1.84474e-06
1.34844e-05
2.00489e-08
1.4153e-06
1.58978e-05
-1.17925e-08
9.64787e-07
1.77206e-05
-3.42978e-08
5.40941e-07
1.83468e-05
-5.34131e-08
1.86552e-07
1.72888e-05
-5.97584e-08
1.00681e-05
-1.03173e-08
-1.25315e-07
-6.23434e-06
1.28246e-07
-3.0636e-07
-1.4395e-05
2.17906e-07
-4.67459e-07
-1.87402e-05
2.46915e-07
-5.92511e-07
-2.07121e-05
2.61575e-07
-6.87953e-07
-2.15478e-05
2.68735e-07
-7.53215e-07
-2.18536e-05
2.72882e-07
-7.89825e-07
-2.18434e-05
2.77272e-07
-7.95846e-07
-2.15886e-05
2.84165e-07
-7.6962e-07
-2.11272e-05
2.95111e-07
-7.0962e-07
-2.04855e-05
3.10899e-07
-6.14393e-07
-1.96844e-05
3.31587e-07
-4.82647e-07
-1.87406e-05
3.57687e-07
-3.12959e-07
-1.76652e-05
3.87693e-07
-1.03698e-07
-1.64673e-05
4.1905e-07
1.46275e-07
-1.51542e-05
4.4932e-07
4.36252e-07
-1.37321e-05
4.75611e-07
7.61129e-07
-1.22065e-05
4.94927e-07
1.1088e-06
-1.05837e-05
5.04552e-07
1.45961e-06
-8.87311e-06
5.02579e-07
1.79212e-06
-7.08738e-06
4.88459e-07
2.09188e-06
-5.23475e-06
4.62967e-07
2.35297e-06
-3.31336e-06
4.27897e-07
2.55735e-06
-1.3199e-06
3.84944e-07
2.60744e-06
6.97179e-07
3.34557e-07
2.74122e-06
2.47287e-06
2.90815e-07
2.81846e-06
4.52799e-06
2.47228e-07
2.79012e-06
6.65878e-06
2.08186e-07
2.62812e-06
8.87579e-06
1.74393e-07
2.35052e-06
1.12407e-05
1.2492e-07
1.96614e-06
1.37907e-05
7.80109e-08
1.50255e-06
1.6322e-05
3.93747e-08
1.01528e-06
1.81956e-05
1.22316e-08
5.56804e-07
1.8814e-05
-8.72592e-09
1.80149e-07
1.76848e-05
-1.92894e-08
1.02347e-05
1.35206e-08
-9.34646e-08
-6.26048e-06
1.19493e-07
-2.02225e-07
-1.4479e-05
1.92686e-07
-2.76618e-07
-1.88657e-05
1.99847e-07
-3.18398e-07
-2.0872e-05
2.01638e-07
-3.45151e-07
-2.17336e-05
2.12499e-07
-3.53581e-07
-2.20646e-05
2.19495e-07
-3.4377e-07
-2.20786e-05
2.25415e-07
-3.13355e-07
-2.18514e-05
2.32402e-07
-2.61908e-07
-2.14208e-05
2.42194e-07
-1.89726e-07
-2.08137e-05
2.56057e-07
-9.74069e-08
-2.00516e-05
2.74804e-07
1.62888e-08
-1.91524e-05
2.98121e-07
1.52804e-07
-1.81284e-05
3.26631e-07
3.13802e-07
-1.69886e-05
3.60261e-07
5.02527e-07
-1.57394e-05
3.96445e-07
7.22404e-07
-1.43849e-05
4.32858e-07
9.75417e-07
-1.29265e-05
4.66957e-07
1.25978e-06
-1.13638e-05
4.9575e-07
1.56675e-06
-9.69621e-06
5.16119e-07
1.87932e-06
-7.92526e-06
5.25298e-07
2.1756e-06
-6.05237e-06
5.21323e-07
2.43332e-06
-4.07455e-06
5.03454e-07
2.63626e-06
-1.99454e-06
4.71681e-07
2.78395e-06
1.23561e-07
4.25925e-07
2.89997e-06
1.9768e-06
3.80048e-07
2.945e-06
4.15592e-06
3.27037e-07
2.89496e-06
6.43396e-06
2.7486e-07
2.73744e-06
8.81178e-06
2.2153e-07
2.45388e-06
1.1346e-05
1.78267e-07
2.05704e-06
1.40557e-05
1.31823e-07
1.5784e-06
1.67107e-05
8.99422e-08
1.07276e-06
1.8642e-05
5.92325e-08
5.9253e-07
1.92579e-05
3.63703e-08
1.94205e-07
1.80622e-05
2.0965e-08
1.0393e-05
3.59349e-08
-4.93205e-08
-6.30941e-06
9.81501e-08
-6.75295e-08
-1.45993e-05
1.38414e-07
-5.29501e-08
-1.90298e-05
1.49469e-07
-1.62769e-08
-2.10669e-05
1.58186e-07
3.76971e-08
-2.19468e-05
1.59167e-07
9.67642e-08
-2.22919e-05
1.68209e-07
1.61613e-07
-2.23195e-05
1.76007e-07
2.35369e-07
-2.21089e-05
1.83771e-07
3.17193e-07
-2.16958e-05
1.93108e-07
4.06696e-07
-2.11086e-05
2.05319e-07
5.02713e-07
-2.0369e-05
2.21418e-07
6.04354e-07
-1.94962e-05
2.42127e-07
7.12159e-07
-1.85036e-05
2.67391e-07
8.28485e-07
-1.74017e-05
2.96817e-07
9.55904e-07
-1.61982e-05
3.31401e-07
1.09895e-06
-1.48978e-05
3.69864e-07
1.26357e-06
-1.35013e-05
4.10181e-07
1.45538e-06
-1.20055e-05
4.49794e-07
1.67694e-06
-1.04034e-05
4.85579e-07
1.92425e-06
-8.6868e-06
5.14216e-07
2.18703e-06
-6.84744e-06
5.32298e-07
2.44756e-06
-4.87177e-06
5.36696e-07
2.67617e-06
-2.74792e-06
5.24773e-07
2.83334e-06
-5.28279e-07
4.94687e-07
2.91142e-06
1.44424e-06
4.54484e-07
3.00051e-06
3.66766e-06
3.99203e-07
2.96606e-06
6.12863e-06
3.39802e-07
2.80586e-06
8.6891e-06
2.82909e-07
2.52088e-06
1.14007e-05
2.3032e-07
2.12324e-06
1.42735e-05
1.79871e-07
1.64023e-06
1.70583e-05
1.35462e-07
1.12104e-06
1.90583e-05
1.02954e-07
6.21208e-07
1.96788e-05
7.89991e-08
2.00755e-07
1.84242e-05
5.84506e-08
1.05393e-05
5.44643e-08
-1.40152e-08
-6.3735e-06
7.80452e-08
4.3661e-08
-1.47481e-05
9.1159e-08
1.5902e-07
-1.92296e-05
8.44386e-08
2.90033e-07
-2.12946e-05
9.66311e-08
4.20888e-07
-2.21887e-05
1.11016e-07
5.55518e-07
-2.2542e-05
1.15441e-07
6.88424e-07
-2.25762e-05
1.23813e-07
8.19926e-07
-2.23741e-05
1.33649e-07
9.47955e-07
-2.19674e-05
1.43551e-07
1.07139e-06
-2.13872e-05
1.55191e-07
1.18867e-06
-2.06559e-05
1.6958e-07
1.29848e-06
-1.97936e-05
1.87609e-07
1.40083e-06
-1.88159e-05
2.09967e-07
1.49693e-06
-1.77349e-05
2.37135e-07
1.5905e-06
-1.65602e-05
2.68454e-07
1.68691e-06
-1.52982e-05
3.03945e-07
1.79341e-06
-1.39509e-05
3.43042e-07
1.91799e-06
-1.25153e-05
3.85222e-07
2.06863e-06
-1.09824e-05
4.28428e-07
2.25066e-06
-9.33854e-06
4.69731e-07
2.46566e-06
-7.56785e-06
5.0542e-07
2.71296e-06
-5.65078e-06
5.31738e-07
2.98559e-06
-3.56492e-06
5.44401e-07
3.23523e-06
-1.31617e-06
5.38298e-07
3.22695e-06
9.40234e-07
5.12331e-07
3.30241e-06
3.12306e-06
4.69177e-07
3.26679e-06
5.7554e-06
4.08902e-07
3.09246e-06
8.51717e-06
3.46301e-07
2.7875e-06
1.1418e-05
2.87654e-07
2.36494e-06
1.44639e-05
2.32198e-07
1.84743e-06
1.73933e-05
1.82479e-07
1.28274e-06
1.94774e-05
1.4554e-07
7.30553e-07
2.01116e-05
1.19348e-07
2.5289e-07
1.88084e-05
9.35874e-08
1.0721e-05
7.11621e-08
5.42149e-08
-6.4848e-06
5.70555e-08
2.14971e-07
-1.49582e-05
4.92816e-08
4.2145e-07
-1.94687e-05
3.25267e-08
6.30099e-07
-2.15401e-05
3.69035e-08
8.2715e-07
-2.24366e-05
5.08629e-08
1.01215e-06
-2.27909e-05
6.3881e-08
1.19002e-06
-2.28255e-05
7.14196e-08
1.36392e-06
-2.26252e-05
7.72027e-08
1.5291e-06
-2.22186e-05
8.60673e-08
1.68334e-06
-2.16386e-05
9.71727e-08
1.82429e-06
-2.09078e-05
1.10914e-07
1.95051e-06
-2.00469e-05
1.27055e-07
2.06145e-06
-1.90735e-05
1.46605e-07
2.15763e-06
-1.80014e-05
1.70267e-07
2.24117e-06
-1.68422e-05
1.98402e-07
2.31573e-06
-1.56038e-05
2.31105e-07
2.38757e-06
-1.42908e-05
2.68147e-07
2.4662e-06
-1.29024e-05
3.08541e-07
2.56252e-06
-1.14303e-05
3.5164e-07
2.6864e-06
-9.85846e-06
3.96069e-07
2.84325e-06
-8.16428e-06
4.39623e-07
3.03306e-06
-6.31987e-06
4.79333e-07
3.24874e-06
-4.29171e-06
5.1117e-07
3.45057e-06
-2.04818e-06
5.30248e-07
3.4504e-06
4.1496e-07
5.25515e-07
3.46067e-06
2.61275e-06
5.00112e-07
3.39309e-06
5.37405e-06
4.49014e-07
3.1985e-06
8.32661e-06
3.85211e-07
2.87141e-06
1.14233e-05
3.21892e-07
2.41989e-06
1.46528e-05
2.62733e-07
1.86927e-06
1.77327e-05
2.11348e-07
1.27566e-06
1.98975e-05
1.73561e-07
7.02359e-07
2.05378e-05
1.47135e-07
2.24485e-07
1.91687e-05
1.17613e-07
1.08675e-05
7.80014e-08
9.11988e-08
-6.6147e-06
3.86901e-08
3.14783e-07
-1.51962e-05
1.44004e-08
5.84991e-07
-1.97281e-05
-1.07686e-08
8.47479e-07
-2.17918e-05
-1.08209e-08
1.09012e-06
-2.26785e-05
-6.82028e-10
1.31215e-06
-2.30245e-05
1.15598e-08
1.51534e-06
-2.30512e-05
2.24788e-08
1.70286e-06
-2.28445e-05
3.18021e-08
1.87488e-06
-2.24301e-05
3.94369e-08
2.0308e-06
-2.18421e-05
4.76406e-08
2.16902e-06
-2.11036e-05
5.7641e-08
2.28705e-06
-2.02361e-05
7.12021e-08
2.38389e-06
-1.92587e-05
8.84384e-08
2.46027e-06
-1.81874e-05
1.09623e-07
2.51951e-06
-1.70363e-05
1.34955e-07
2.56304e-06
-1.58122e-05
1.64929e-07
2.59378e-06
-1.4521e-05
1.99453e-07
2.61988e-06
-1.31664e-05
2.37947e-07
2.65196e-06
-1.17422e-05
2.79803e-07
2.70073e-06
-1.02315e-05
3.24274e-07
2.77463e-06
-8.60828e-06
3.70134e-07
2.87504e-06
-6.83585e-06
4.15613e-07
2.99068e-06
-4.86499e-06
4.577e-07
3.10053e-06
-2.64951e-06
4.91544e-07
3.23093e-06
-2.24878e-07
5.09511e-07
3.30176e-06
2.03902e-06
5.02982e-07
3.26278e-06
4.94637e-06
4.66722e-07
3.07146e-06
8.11055e-06
4.07456e-07
2.71912e-06
1.14344e-05
3.41332e-07
2.23099e-06
1.48591e-05
2.81862e-07
1.65403e-06
1.80801e-05
2.29553e-07
1.07215e-06
2.02894e-05
1.89996e-07
5.41383e-07
2.0907e-05
1.61686e-07
1.4067e-07
1.94411e-05
1.28433e-07
1.09318e-05
7.6361e-08
1.20964e-07
-6.7589e-06
2.32635e-08
3.96131e-07
-1.54564e-05
-1.49329e-08
7.2207e-07
-2.00084e-05
-4.55974e-08
1.03509e-06
-2.20548e-05
-5.00131e-08
1.32085e-06
-2.29208e-05
-4.3513e-08
1.57833e-06
-2.32475e-05
-3.45005e-08
1.80794e-06
-2.32547e-05
-2.61124e-08
2.01129e-06
-2.30296e-05
-1.8297e-08
2.18744e-06
-2.25953e-05
-1.09248e-08
2.33671e-06
-2.19883e-05
-3.07739e-09
2.45936e-06
-2.12324e-05
6.14868e-09
2.55507e-06
-2.035e-05
1.81888e-08
2.62403e-06
-1.93611e-05
3.34471e-08
2.66626e-06
-1.82818e-05
5.22909e-08
2.68021e-06
-1.71239e-05
7.36546e-08
2.67257e-06
-1.59052e-05
1.00668e-07
2.65151e-06
-1.46341e-05
1.34218e-07
2.62289e-06
-1.33094e-05
1.71671e-07
2.5916e-06
-1.19234e-05
2.12564e-07
2.5644e-06
-1.04612e-05
2.56992e-07
2.55515e-06
-8.9033e-06
3.04337e-07
2.57885e-06
-7.21335e-06
3.53873e-07
2.64995e-06
-5.33992e-06
4.03913e-07
2.77325e-06
-3.22352e-06
4.50804e-07
2.91715e-06
-8.55452e-07
4.86798e-07
2.96178e-06
1.49628e-06
4.9823e-07
2.95594e-06
4.47269e-06
4.79651e-07
2.75526e-06
7.88041e-06
4.30943e-07
2.38352e-06
1.14352e-05
3.70979e-07
1.86732e-06
1.50765e-05
2.98918e-07
1.30602e-06
1.84e-05
2.41508e-07
7.90725e-07
2.06057e-05
1.99081e-07
3.54161e-07
2.11767e-05
1.66964e-07
6.29711e-08
1.96038e-05
1.28579e-07
1.09264e-05
6.83882e-08
1.26706e-07
-6.89626e-06
1.06923e-08
4.16197e-07
-1.57071e-05
-3.87404e-08
7.60724e-07
-2.02782e-05
-7.46807e-08
1.09502e-06
-2.23082e-05
-8.08557e-08
1.40315e-06
-2.31542e-05
-7.46298e-08
1.68188e-06
-2.34607e-05
-6.54214e-08
1.92963e-06
-2.34456e-05
-5.68114e-08
2.14455e-06
-2.31955e-05
-4.89811e-08
2.32624e-06
-2.2735e-05
-4.19497e-08
2.47447e-06
-2.21016e-05
-3.48912e-08
2.58974e-06
-2.13205e-05
-2.70974e-08
2.67349e-06
-2.04155e-05
-1.82238e-08
2.72707e-06
-1.94076e-05
-7.08723e-09
2.74754e-06
-1.83091e-05
6.83517e-09
2.73539e-06
-1.71396e-05
2.79097e-08
2.69902e-06
-1.59211e-05
5.22342e-08
2.64819e-06
-1.46623e-05
7.90811e-08
2.58735e-06
-1.33588e-05
1.10202e-07
2.52137e-06
-1.20053e-05
1.47882e-07
2.45857e-06
-1.05906e-05
1.9225e-07
2.40547e-06
-9.08932e-06
2.39167e-07
2.37705e-06
-7.47448e-06
2.89602e-07
2.3931e-06
-5.69931e-06
3.43388e-07
2.47163e-06
-3.70111e-06
3.99134e-07
2.58389e-06
-1.41832e-06
4.50687e-07
2.46812e-06
1.13102e-06
4.81112e-07
2.46545e-06
3.99098e-06
4.8447e-07
2.33325e-06
7.56297e-06
4.49726e-07
2.02692e-06
1.13477e-05
3.93948e-07
1.60378e-06
1.51696e-05
3.30068e-07
1.1456e-06