/*--------------------------------*- C++ -*----------------------------------*\
| =========                 |                                                 |
| \\      /  F ield         | OpenFOAM: The Open Source CFD Toolbox           |
|  \\    /   O peration     | Version:  2.3.x                                 |
|   \\  /    A nd           | Web:      www.OpenFOAM.org                      |
|    \\/     M anipulation  |                                                 |
\*---------------------------------------------------------------------------*/
FoamFile
{
    version     2.0;
    format      ascii;
    class       surfaceScalarField;
    location    "1000";
    object      phi;
}
// * * * * * * * * * * * * * * * * * * * * * * * * * * * * * * * * * * * * * //

dimensions      [1 0 -1 0 0 0 0];

internalField   nonuniform List<scalar> 
228225
(
-3.76863e-06
2.22114e-06
1.4501e-06
-9.1184e-06
2.74295e-06
2.60665e-06
-1.37051e-05
1.71599e-06
2.87053e-06
-1.65056e-05
-5.14756e-08
2.85171e-06
-1.7572e-05
-1.68469e-06
2.75093e-06
-1.67551e-05
-3.4396e-06
2.62247e-06
-1.41383e-05
-5.15003e-06
2.53296e-06
-1.01976e-05
-6.3861e-06
2.44519e-06
-5.43249e-06
-7.15252e-06
2.38729e-06
-1.79346e-07
-7.61081e-06
2.35752e-06
5.30925e-06
-7.81614e-06
2.32742e-06
1.08405e-05
-7.8445e-06
2.31316e-06
1.62563e-05
-7.75147e-06
2.33562e-06
2.1523e-05
-7.62248e-06
2.35577e-06
2.65202e-05
-7.36978e-06
2.37253e-06
3.12579e-05
-7.09034e-06
2.35266e-06
3.56471e-05
-6.71623e-06
2.32707e-06
3.958e-05
-6.24375e-06
2.31082e-06
4.29764e-05
-5.69769e-06
2.30128e-06
4.58389e-05
-5.14993e-06
2.28752e-06
4.80845e-05
-4.53965e-06
2.29407e-06
4.96062e-05
-3.82771e-06
2.30602e-06
5.05789e-05
-3.28447e-06
2.3119e-06
5.08533e-05
-2.60424e-06
2.32989e-06
5.04496e-05
-1.94657e-06
2.35037e-06
4.93286e-05
-1.25596e-06
2.37705e-06
4.74597e-05
-5.40867e-07
2.40981e-06
4.45852e-05
4.25504e-07
2.44919e-06
4.10488e-05
1.04271e-06
2.49384e-06
3.66265e-05
1.87046e-06
2.55195e-06
3.11531e-05
2.84851e-06
2.62513e-06
2.45401e-05
3.89139e-06
2.72183e-06
1.66943e-05
4.99855e-06
2.84778e-06
7.74682e-06
6.08636e-06
2.86176e-06
5.9344e-06
1.81244e-06
9.52118e-07
3.94467e-07
8.74434e-07
1.88256e-06
5.51264e-08
1.75725e-06
3.07914e-06
-1.54388e-06
2.06317e-06
5.00974e-06
-4.04691e-06
2.06471e-06
7.73355e-06
-6.41668e-06
2.00806e-06
1.09899e-05
-8.54319e-06
1.84717e-06
1.42807e-05
-1.01291e-05
1.68822e-06
1.74502e-05
-1.11084e-05
1.55278e-06
2.05021e-05
-1.16556e-05
1.45113e-06
2.34435e-05
-1.1929e-05
1.37671e-06
2.62561e-05
-1.19442e-05
1.31538e-06
2.88991e-05
-1.1748e-05
1.26048e-06
3.13492e-05
-1.1435e-05
1.23349e-06
3.35859e-05
-1.10446e-05
1.18555e-06
3.56034e-05
-1.05216e-05
1.13432e-06
3.7194e-05
-9.79201e-06
1.11112e-06
3.83991e-05
-9.01909e-06
1.09793e-06
3.93029e-05
-8.23214e-06
1.0847e-06
3.99398e-05
-7.41158e-06
1.07709e-06
4.02688e-05
-6.5565e-06
1.07766e-06
4.03635e-05
-5.70412e-06
1.06987e-06
4.02813e-05
-4.81627e-06
1.07089e-06
3.98087e-05
-3.89264e-06
1.08089e-06
3.90376e-05
-2.93566e-06
1.10267e-06
3.78945e-05
-1.95003e-06
1.14663e-06
3.63667e-05
-9.10855e-07
1.18294e-06
3.4265e-05
3.18595e-07
1.2424e-06
3.18533e-05
1.49718e-06
1.34015e-06
2.88942e-05
2.54918e-06
1.45293e-06
2.5267e-05
3.87932e-06
1.61864e-06
2.10191e-05
5.29478e-06
1.80207e-06
1.60366e-05
6.89116e-06
1.98315e-06
1.013e-05
8.74136e-06
2.16428e-06
3.98001e-06
1.00813e-05
2.15556e-06
8.6062e-06
1.30822e-06
5.57087e-07
-7.98831e-07
6.35856e-07
2.95333e-06
-3.5094e-06
1.16791e-06
6.66505e-06
-6.59534e-06
1.33942e-06
1.07015e-05
-9.40156e-06
1.31798e-06
1.45979e-05
-1.14866e-05
1.17329e-06
1.77004e-05
-1.2755e-05
1.10909e-06
1.98904e-05
-1.33349e-05
1.01573e-06
2.13862e-05
-1.3614e-05
1.00968e-06
2.24445e-05
-1.369e-05
9.76006e-07
2.31675e-05
-1.36062e-05
9.54168e-07
2.36476e-05
-1.33508e-05
9.26452e-07
2.39885e-05
-1.29825e-05
8.93586e-07
2.42217e-05
-1.2509e-05
8.4065e-07
2.43112e-05
-1.19316e-05
7.97408e-07
2.42811e-05
-1.12501e-05
7.58536e-07
2.42437e-05
-1.04756e-05
7.20867e-07
2.42054e-05
-9.65756e-06
6.76658e-07
2.4169e-05
-8.83519e-06
6.39435e-07
2.41304e-05
-7.98265e-06
6.09573e-07
2.40425e-05
-7.0595e-06
5.90838e-07
2.38208e-05
-6.06337e-06
5.80956e-07
2.34424e-05
-5.01548e-06
5.77649e-07
2.29005e-05
-3.93445e-06
5.83672e-07
2.2188e-05
-2.82465e-06
6.0153e-07
2.12718e-05
-1.65186e-06
6.18093e-07
2.00464e-05
-3.38777e-07
6.53336e-07
1.87395e-05
9.08854e-07
7.16765e-07
1.74546e-05
1.98579e-06
7.96404e-07
1.58087e-05
3.29321e-06
9.02042e-07
1.38655e-05
4.77653e-06
1.04632e-06
1.1481e-05
6.42862e-06
1.25106e-06
8.40486e-06
8.43472e-06
1.53293e-06
4.8151e-06
1.05494e-05
1.78215e-06
1.58629e-06
1.15983e-05
1.71229e-06
9.26213e-06
9.30358e-07
5.53412e-07
-1.7802e-06
4.27735e-07
2.2897e-06
-5.94765e-06
7.01757e-07
4.54694e-06
-9.52296e-06
6.70215e-07
6.5471e-06
-1.19883e-05
5.86418e-07
7.94008e-06
-1.3404e-05
5.24304e-07
8.85052e-06
-1.41515e-05
4.86006e-07
9.56424e-06
-1.45493e-05
5.00547e-07
1.02044e-05
-1.47189e-05
4.64617e-07
1.07965e-05
-1.47095e-05
4.27314e-07
1.13361e-05
-1.45416e-05
3.95787e-07
1.18525e-05
-1.42311e-05
3.63808e-07
1.23392e-05
-1.3802e-05
3.32668e-07
1.27914e-05
-1.32666e-05
3.05479e-07
1.32096e-05
-1.26338e-05
2.8381e-07
1.35944e-05
-1.19054e-05
2.70429e-07
1.39265e-05
-1.10763e-05
2.68372e-07
1.41344e-05
-1.01445e-05
2.78885e-07
1.41828e-05
-9.16568e-06
2.81877e-07
1.40731e-05
-8.15142e-06
2.78182e-07
1.38403e-05
-7.09316e-06
2.66171e-07
1.35149e-05
-5.99331e-06
2.55033e-07
1.31151e-05
-4.86532e-06
2.49306e-07
1.26518e-05
-3.71943e-06
2.47834e-07
1.21364e-05
-2.55458e-06
2.44841e-07
1.15453e-05
-1.31425e-06
2.53026e-07
1.08575e-05
7.45874e-08
2.74124e-07
1.04045e-05
1.03531e-06
3.26144e-07
9.71778e-06
2.26345e-06
4.08606e-07
8.89287e-06
3.58366e-06
5.34015e-07
7.88939e-06
5.08739e-06
6.92185e-07
6.46256e-06
6.94684e-06
9.08209e-07
4.48679e-06
9.24465e-06
1.16549e-06
2.25137e-06
1.14045e-05
1.37997e-06
4.05784e-07
1.2139e-05
1.30444e-06
9.03812e-06
6.29782e-07
7.00751e-07
-2.75017e-06
2.69096e-07
2.05287e-06
-7.71373e-06
4.13833e-07
3.35097e-06
-1.12565e-05
4.35326e-07
4.3409e-06
-1.3422e-05
4.43725e-07
5.11054e-06
-1.46165e-05
4.4273e-07
5.77147e-06
-1.52309e-05
4.18296e-07
6.33618e-06
-1.55069e-05
3.92811e-07
6.8307e-06
-1.55711e-05
3.57626e-07
7.26668e-06
-1.54728e-05
3.27109e-07
7.6443e-06
-1.52185e-05
2.9918e-07
7.97481e-06
-1.48359e-05
2.74133e-07
8.25698e-06
-1.43365e-05
2.52077e-07
8.4871e-06
-1.37303e-05
2.33322e-07
8.66049e-06
-1.30255e-05
2.18161e-07
8.7766e-06
-1.22284e-05
2.06613e-07
8.84379e-06
-1.13432e-05
1.99532e-07
8.88551e-06
-1.03844e-05
1.97911e-07
8.86888e-06
-9.35005e-06
2.00787e-07
8.76196e-06
-8.24872e-06
2.04011e-07
8.57663e-06
-7.11779e-06
2.09761e-07
8.34078e-06
-5.96994e-06
2.12305e-07
8.06745e-06
-4.80073e-06
2.08534e-07
7.76522e-06
-3.61545e-06
1.98035e-07
7.4401e-06
-2.40857e-06
1.78872e-07
7.11694e-06
-1.1523e-06
1.60976e-07
6.89703e-06
1.45318e-07
1.48964e-07
6.67224e-06
1.08918e-06
1.70693e-07
6.43626e-06
2.281e-06
2.18201e-07
6.07489e-06
3.63564e-06
3.09173e-07
5.47311e-06
5.23504e-06
4.53925e-07
4.50789e-06
7.26203e-06
6.49814e-07
3.13701e-06
9.72848e-06
8.86872e-07
1.60811e-06
1.1855e-05
1.07806e-06
3.12814e-07
1.24101e-05
1.02387e-06
8.87763e-06
4.73298e-07
3.59975e-07
-3.29489e-06
1.84485e-07
9.60116e-07
-8.5628e-06
2.48716e-07
1.54236e-06
-1.20564e-05
2.17475e-07
2.02787e-06
-1.40951e-05
1.8736e-07
2.39714e-06
-1.51783e-05
1.92412e-07
2.68742e-06
-1.57383e-05
2.17079e-07
2.96226e-06
-1.60005e-05
2.18622e-07
3.24064e-06
-1.60561e-05
2.06494e-07
3.52809e-06
-1.59495e-05
1.89209e-07
3.82938e-06
-1.56882e-05
1.68241e-07
4.1436e-06
-1.52965e-05
1.46159e-07
4.46936e-06
-1.47873e-05
1.24937e-07
4.80492e-06
-1.41722e-05
1.06164e-07
5.14575e-06
-1.34581e-05
9.15515e-08
5.48522e-06
-1.26507e-05
8.26038e-08
5.81553e-06
-1.17542e-05
8.04186e-08
6.12063e-06
-1.07745e-05
8.47817e-08
6.3925e-06
-9.71915e-06
9.6976e-08
6.62275e-06
-8.59585e-06
1.16613e-07
6.7866e-06
-7.41701e-06
1.35077e-07
6.86363e-06
-6.19527e-06
1.48016e-07
6.85245e-06
-4.94494e-06
1.55103e-07
6.7622e-06
-3.67932e-06
1.53797e-07
6.60183e-06
-2.39756e-06
1.49019e-07
6.38482e-06
-1.07514e-06
1.39535e-07
6.12762e-06
2.74236e-07
1.27979e-07
5.83563e-06
1.23892e-06
1.41937e-07
5.52845e-06
2.41432e-06
1.73541e-07
5.17645e-06
3.74673e-06
2.40592e-07
4.67029e-06
5.38408e-06
3.56801e-07
3.85846e-06
7.54577e-06
5.27815e-07
2.69916e-06
1.0161e-05
7.26554e-07
1.40398e-06
1.22684e-05
8.8169e-07
2.89407e-07
1.26974e-05
8.27013e-07
8.79429e-06
3.72734e-07
2.10793e-07
-3.61537e-06
1.09385e-07
6.58037e-07
-9.13619e-06
1.25916e-07
1.17626e-06
-1.26777e-05
1.02928e-07
1.67104e-06
-1.46902e-05
1.00249e-07
2.11827e-06
-1.57426e-05
1.1697e-07
2.52574e-06
-1.62783e-05
1.32407e-07
2.90176e-06
-1.65183e-05
1.41709e-07
3.26071e-06
-1.65548e-05
1.39647e-07
3.61312e-06
-1.64334e-05
1.31362e-07
3.96202e-06
-1.61554e-05
1.18227e-07
4.30869e-06
-1.57462e-05
1.0298e-07
4.6555e-06
-1.52215e-05
8.73245e-08
5.00515e-06
-1.45943e-05
7.24064e-08
5.34941e-06
-1.38624e-05
5.99893e-08
5.67238e-06
-1.30261e-05
5.23739e-08
5.96065e-06
-1.20937e-05
5.11501e-08
6.2037e-06
-1.10759e-05
5.83104e-08
6.40704e-06
-9.99603e-06
7.34793e-08
6.57867e-06
-8.8639e-06
9.63695e-08
6.71079e-06
-7.67518e-06
1.25997e-07
6.78526e-06
-6.42842e-06
1.58606e-07
6.7928e-06
-5.14013e-06
1.87574e-07
6.72922e-06
-3.82243e-06
2.06599e-07
6.5963e-06
-2.47816e-06
2.13402e-07
6.40576e-06
-1.09037e-06
2.05612e-07
6.16603e-06
3.33406e-07
1.80396e-07
5.87814e-06
1.3511e-06
1.75495e-07
5.5188e-06
2.59554e-06
1.77833e-07
5.0777e-06
3.98147e-06
2.06009e-07
4.50797e-06
5.67619e-06
2.77229e-07
3.72685e-06
7.91806e-06
4.08447e-07
2.6791e-06
1.06282e-05
5.80256e-07
1.49513e-06
1.27355e-05
7.16445e-07
4.32566e-07
1.30854e-05
6.7416e-07
8.92249e-06
3.04377e-07
2.7672e-07
-3.94201e-06
4.97249e-08
8.35099e-07
-9.71299e-06
1.82878e-08
1.4887e-06
-1.33008e-05
-3.06834e-08
2.12263e-06
-1.52728e-05
-5.14517e-08
2.695e-06
-1.62761e-05
-3.89335e-08
3.20614e-06
-1.6779e-05
-1.0523e-08
3.66909e-06
-1.69986e-05
1.7224e-08
4.09853e-06
-1.7019e-05
3.4681e-08
4.51177e-06
-1.68845e-05
3.78043e-08
4.91517e-06
-1.65911e-05
3.22039e-08
5.3094e-06
-1.61624e-05
2.19453e-08
5.68383e-06
-1.56051e-05
9.14886e-09
6.01238e-06
-1.49176e-05
-5.2379e-09
6.27779e-06
-1.41082e-05
-1.96204e-08
6.47965e-06
-1.3197e-05
-3.09308e-08
6.62921e-06
-1.22073e-05
-3.59201e-08
6.74416e-06
-1.11572e-05
-3.36627e-08
6.83482e-06
-1.00634e-05
-2.32615e-08
6.90425e-06
-8.92902e-06
-4.22773e-09
6.95819e-06
-7.75315e-06
2.41264e-08
7.00191e-06
-6.53441e-06
6.23939e-08
7.02424e-06
-5.27132e-06
1.09005e-07
7.0017e-06
-3.95922e-06
1.5952e-07
6.90723e-06
-2.58692e-06
2.03469e-07
6.72328e-06
-1.13707e-06
2.30887e-07
6.44013e-06
3.80131e-07
2.36649e-07
6.08458e-06
1.46872e-06
2.38185e-07
5.6458e-06
2.80503e-06
2.29568e-07
5.12039e-06
4.27682e-06
2.3035e-07
4.4902e-06
6.04297e-06
2.63716e-07
3.70108e-06
8.35324e-06
3.54196e-07
2.69633e-06
1.11405e-05
4.92589e-07
1.54285e-06
1.32779e-05
6.11323e-07
4.75858e-07
1.3574e-05
5.78715e-07
9.13814e-06
2.60207e-07
2.40444e-07
-4.19789e-06
1.53916e-08
7.90858e-07
-1.02338e-05
-2.96031e-08
1.46715e-06
-1.39038e-05
-7.32179e-08
2.14755e-06
-1.5863e-05
-9.02418e-08
2.78633e-06
-1.68302e-05
-8.46197e-08
3.37197e-06
-1.73007e-05
-6.39247e-08
3.90669e-06
-1.74926e-05
-4.06731e-08
4.39353e-06
-1.74857e-05
-2.01204e-08
4.82972e-06
-1.73151e-05
-5.58506e-09
5.22387e-06
-1.69867e-05
1.50423e-09
5.57609e-06
-1.65174e-05
2.79083e-09
5.88614e-06
-1.59152e-05
1.29546e-10
6.13248e-06
-1.51595e-05
-4.34694e-09
6.30941e-06
-1.42745e-05
-1.05221e-08
6.43116e-06
-1.3304e-05
-1.46042e-08
6.51951e-06
-1.22791e-05
-1.64011e-08
6.58593e-06
-1.1211e-05
-1.24742e-08
6.63362e-06
-1.01039e-05
-6.92564e-09
6.66417e-06
-8.96224e-06
2.85417e-09
6.68122e-06
-7.78666e-06
1.66488e-08
6.68729e-06
-6.57496e-06
3.46589e-08
6.68456e-06
-5.32617e-06
5.77536e-08
6.66857e-06
-4.03108e-06
8.80191e-08
6.61998e-06
-2.66596e-06
1.27803e-07
6.50462e-06
-1.19556e-06
1.73995e-07
6.3082e-06
3.63196e-07
2.13447e-07
6.02136e-06
1.51832e-06
2.37312e-07
5.62516e-06
2.95512e-06
2.46162e-07
5.10453e-06
4.55139e-06
2.4608e-07
4.43862e-06
6.45294e-06
2.55968e-07
3.59446e-06
8.89212e-06
3.05302e-07
2.56096e-06
1.17709e-05
4.03165e-07
1.43195e-06
1.39055e-05
5.01437e-07
4.12759e-07
1.41127e-05
4.80546e-07
9.33811e-06
2.1279e-07
2.80597e-07
-4.46291e-06
-1.5411e-08
8.93202e-07
-1.07613e-05
-8.50499e-08
1.65121e-06
-1.45204e-05
-1.4133e-07
2.40926e-06
-1.6454e-05
-1.6687e-07
3.10865e-06
-1.73637e-05
-1.6581e-07
3.73581e-06
-1.77783e-05
-1.49411e-07
4.29107e-06
-1.79177e-05
-1.30037e-07
4.78095e-06
-1.78637e-05
-1.11742e-07
5.19994e-06
-1.76358e-05
-9.81571e-08
5.55324e-06
-1.72508e-05
-8.90491e-08
5.83213e-06
-1.6712e-05
-8.41066e-08
6.01966e-06
-1.602e-05
-8.26221e-08
6.13113e-06
-1.51905e-05
-8.03199e-08
6.1974e-06
-1.42669e-05
-7.36678e-08
6.23702e-06
-1.32792e-05
-6.42644e-08
6.25433e-06
-1.22402e-05
-5.59627e-08
6.25496e-06
-1.11621e-05
-4.92567e-08
6.23902e-06
-1.00495e-05
-3.8291e-08
6.21057e-06
-8.90961e-06
-2.39507e-08
6.17514e-06
-7.74494e-06
-6.0405e-09
6.13407e-06
-6.54945e-06
1.58028e-08
6.08389e-06
-5.31749e-06
4.17577e-08
6.02103e-06
-4.03956e-06
7.1625e-08
5.94158e-06
-2.69176e-06
1.05553e-07
5.83481e-06
-1.23404e-06
1.45532e-07
5.6875e-06
3.23697e-07
1.87051e-07
5.45915e-06
1.52891e-06
2.17974e-07
5.11844e-06
3.05657e-06
2.39446e-07
4.63312e-06
4.7874e-06
2.49431e-07
3.97599e-06
6.85364e-06
2.56503e-07
3.13459e-06
9.45041e-06
2.83144e-07
2.15238e-06
1.24075e-05
3.45566e-07
1.15321e-06
1.44883e-05
4.16323e-07
2.95116e-07
1.45752e-05
3.95496e-07
9.46331e-06
1.69903e-07
2.5951e-07
-4.69046e-06
-3.16508e-08
9.01047e-07
-1.13041e-05
-9.84487e-08
1.71631e-06
-1.51907e-05
-1.44778e-07
2.55148e-06
-1.71214e-05
-1.6763e-07
3.34436e-06
-1.79864e-05
-1.70107e-07
4.07469e-06
-1.83484e-05
-1.60097e-07
4.73311e-06
-1.84293e-05
-1.46681e-07
5.32004e-06
-1.83178e-05
-1.32665e-07
5.82336e-06
-1.80162e-05
-1.22718e-07
6.23747e-06
-1.7548e-05
-1.16662e-07
6.55019e-06
-1.69101e-05
-1.14407e-07
6.73683e-06
-1.60913e-05
-1.15109e-07
6.82629e-06
-1.5169e-05
-1.10693e-07
6.85029e-06
-1.41808e-05
-1.09811e-07
6.82725e-06
-1.31442e-05
-1.11667e-07
6.76435e-06
-1.20679e-05
-1.09124e-07
6.66639e-06
-1.09625e-05
-1.01399e-07
6.54141e-06
-9.83624e-06
-8.79791e-08
6.39805e-06
-8.6969e-06
-6.90723e-08
6.24969e-06
-7.55097e-06
-4.53431e-08
6.10731e-06
-6.38922e-06
-1.76044e-08
5.97348e-06
-5.19694e-06
1.35282e-08
5.84186e-06
-3.95511e-06
4.74103e-08
5.69931e-06
-2.63302e-06
8.40622e-08
5.53578e-06
-1.19433e-06
1.24044e-07
5.35093e-06
3.43633e-07
1.65098e-07
5.11316e-06
1.57058e-06
1.96261e-07
4.7824e-06
3.16477e-06
2.227e-07
4.32177e-06
5.00901e-06
2.39113e-07
3.70593e-06
7.22127e-06
2.4824e-07
2.93148e-06
9.95984e-06
2.64988e-07
2.03662e-06
1.2997e-05
3.05293e-07
1.11891e-06
1.50508e-05
3.54993e-07
3.20169e-07
1.50415e-05
3.32222e-07
9.64452e-06
1.38969e-07
3.69966e-07
-5.00784e-06
-5.20969e-08
1.16804e-06
-1.19768e-05
-1.2501e-07
2.12458e-06
-1.59744e-05
-1.72608e-07
3.07458e-06
-1.78691e-05
-2.02117e-07
3.96654e-06
-1.8667e-05
-2.11095e-07
4.78443e-06
-1.89597e-05
-2.06411e-07
5.5173e-06
-1.89658e-05
-1.9625e-07
6.15387e-06
-1.87702e-05
-1.84014e-07
6.67848e-06
-1.83648e-05
-1.75745e-07
7.06979e-06
-1.77674e-05
-1.71727e-07
7.3078e-06
-1.69755e-05
-1.72339e-07
7.43659e-06
-1.60469e-05
-1.72807e-07
7.48109e-06
-1.50279e-05
-1.85285e-07
7.44264e-06
-1.39458e-05
-1.96263e-07
7.3362e-06
-1.28345e-05
-2.02918e-07
7.18555e-06
-1.17133e-05
-2.03626e-07
7.00539e-06
-1.05849e-05
-1.9707e-07
6.80255e-06
-9.45029e-06
-1.82799e-07
6.58403e-06
-8.31687e-06
-1.61234e-07
6.36234e-06
-7.19555e-06
-1.33464e-07
6.15056e-06
-6.07676e-06
-1.00444e-07
5.95852e-06
-4.9416e-06
-6.30758e-08
5.78709e-06
-3.76164e-06
-2.18348e-08
5.62657e-06
-2.49593e-06
2.3624e-08
5.46e-06
-1.10151e-06
7.39306e-08
5.27806e-06
3.99306e-07
1.26385e-07
5.04198e-06
1.64147e-06
1.6529e-07
4.72915e-06
3.27718e-06
2.00491e-07
4.29424e-06
5.21939e-06
2.24609e-07
3.69121e-06
7.58753e-06
2.36832e-07
2.90097e-06
1.05027e-05
2.4743e-07
1.9745e-06
1.36513e-05
2.72272e-07
1.0527e-06
1.56658e-05
3.06925e-07
2.72417e-07
1.55387e-05
2.83292e-07
9.80325e-06
1.13678e-07
4.1162e-07
-5.3651e-06
-5.38381e-08
1.26084e-06
-1.27241e-05
-1.01616e-07
2.23035e-06
-1.68087e-05
-1.34837e-07
3.1767e-06
-1.86444e-05
-1.70803e-07
4.06763e-06
-1.93639e-05
-1.93842e-07
4.89137e-06
-1.95781e-05
-2.05192e-07
5.63497e-06
-1.95023e-05
-2.06835e-07
6.26071e-06
-1.91903e-05
-2.0533e-07
6.75481e-06
-1.86536e-05
-2.05045e-07
7.07926e-06
-1.78829e-05
-2.08668e-07
7.25763e-06
-1.69368e-05
-2.16729e-07
7.31197e-06
-1.5869e-05
-2.31861e-07
7.24775e-06
-1.47161e-05
-2.47204e-07
7.09948e-06
-1.35361e-05
-2.61009e-07
6.90553e-06
-1.23691e-05
-2.71034e-07
6.69506e-06
-1.12271e-05
-2.75347e-07
6.48344e-06
-1.01004e-05
-2.72559e-07
6.27031e-06
-8.97495e-06
-2.61921e-07
6.0527e-06
-7.85543e-06
-2.43573e-07
5.83287e-06
-6.75697e-06
-2.18524e-07
5.61796e-06
-5.67391e-06
-1.87725e-07
5.41542e-06
-4.58677e-06
-1.52113e-07
5.23228e-06
-3.46658e-06
-1.11764e-07
5.07441e-06
-2.27234e-06
-6.55822e-08
4.93092e-06
-9.4596e-07
-1.19863e-08
4.79e-06
4.93397e-07
4.68453e-08
4.58582e-06
1.75359e-06
9.19976e-08
4.28965e-06
3.43414e-06
1.39064e-07
3.84225e-06
5.49134e-06
1.7523e-07
3.19013e-06
8.04469e-06
1.94726e-07
2.34458e-06
1.1145e-05
2.0307e-07
1.44406e-06
1.43356e-05
2.16044e-07
6.74818e-07
1.6199e-05
2.36109e-07
9.98708e-08
1.59023e-05
2.11326e-07
9.83243e-06
7.06821e-08
4.51814e-07
-5.76716e-06
-4.92433e-08
1.26484e-06
-1.34638e-05
-7.2992e-08
2.13042e-06
-1.7578e-05
-9.60896e-08
2.95553e-06
-1.93318e-05
-1.37479e-07
3.73108e-06
-1.99687e-05
-1.70575e-07
4.44642e-06
-2.00997e-05
-1.9345e-07
5.07914e-06
-1.99294e-05
-2.05435e-07
5.5795e-06
-1.94758e-05
-2.1469e-07
5.92016e-06
-1.87714e-05
-2.22662e-07
6.11934e-06
-1.78437e-05
-2.38074e-07
6.18065e-06
-1.67415e-05
-2.56258e-07
6.10248e-06
-1.55143e-05
-2.7622e-07
5.92945e-06
-1.42469e-05
-2.95799e-07
5.71409e-06
-1.30084e-05
-3.1209e-07
5.49548e-06
-1.18271e-05
-3.23161e-07
5.29481e-06
-1.06981e-05
-3.28112e-07
5.11933e-06
-9.59828e-06
-3.26413e-07
4.96347e-06
-8.50137e-06
-3.17492e-07
4.81313e-06
-7.40343e-06
-3.01441e-07
4.65957e-06
-6.32411e-06
-2.79102e-07
4.50252e-06
-5.2655e-06
-2.51178e-07
4.34433e-06
-4.21006e-06
-2.18334e-07
4.1899e-06
-3.13171e-06
-1.80263e-07
4.04843e-06
-1.99493e-06
-1.35748e-07
3.91964e-06
-7.34394e-07
-8.25793e-08
3.79657e-06
6.369e-07
-2.02435e-08
3.60818e-06
1.90569e-06
3.64766e-08
3.33883e-06
3.60952e-06
9.41413e-08
2.94867e-06
5.73712e-06
1.44494e-07
2.41539e-06
8.40292e-06
1.75092e-07
1.76717e-06
1.16101e-05
1.83115e-07
1.10195e-06
1.4817e-05
1.83774e-07
5.20913e-07
1.65921e-05
1.87622e-07
7.85784e-08
1.61886e-05
1.55726e-07
9.8675e-06
4.35271e-08
3.97516e-07
-6.13495e-06
-2.94547e-08
1.0313e-06
-1.4082e-05
-1.5438e-08
1.64719e-06
-1.81693e-05
-2.44101e-08
2.21682e-06
-1.98307e-05
-7.05784e-08
2.75381e-06
-2.03913e-05
-1.14207e-07
3.25246e-06
-2.04486e-05
-1.49718e-07
3.68536e-06
-2.0187e-05
-1.75207e-07
4.02861e-06
-1.96207e-05
-1.98135e-07
4.25715e-06
-1.87776e-05
-2.2216e-07
4.36167e-06
-1.77046e-05
-2.43439e-07
4.33442e-06
-1.64444e-05
-2.69689e-07
4.2145e-06
-1.50959e-05
-2.98355e-07
4.05214e-06
-1.3759e-05
-3.25413e-07
3.88879e-06
-1.24977e-05
-3.47253e-07
3.75006e-06
-1.13262e-05
-3.62032e-07
3.64628e-06
-1.02248e-05
-3.69444e-07
3.57782e-06
-9.15998e-06
-3.69773e-07
3.53949e-06
-8.09977e-06
-3.63226e-07
3.51397e-06
-7.02784e-06
-3.50038e-07
3.48791e-06
-5.96678e-06
-3.31242e-07
3.45893e-06
-4.92885e-06
-3.07658e-07
3.42826e-06
-3.89954e-06
-2.79846e-07
3.39937e-06
-2.85566e-06
-2.47139e-07
3.37863e-06
-1.7659e-06
-2.08264e-07
3.36792e-06
-5.63287e-07
-1.60347e-07
3.3569e-06
7.52718e-07
-1.04712e-07
3.28932e-06
2.02623e-06
-5.28e-08
3.14653e-06
3.74243e-06
1.01633e-08
2.89871e-06
5.90916e-06
7.61622e-08
2.52141e-06
8.64833e-06
1.32342e-07
1.99772e-06
1.19686e-05
1.65579e-07
1.34825e-06
1.52886e-05
1.78235e-07
6.90576e-07
1.70669e-05
1.8324e-07
1.46842e-07
1.6583e-05
1.49714e-07
9.97453e-06
3.98003e-08
2.38434e-07
-6.3742e-06
8.20458e-10
5.66114e-07
-1.44579e-05
4.82269e-08
8.55229e-07
-1.8509e-05
5.06004e-08
1.12827e-06
-2.0108e-05
4.21751e-09
1.40535e-06
-2.06235e-05
-4.49165e-08
1.68014e-06
-2.06349e-05
-8.8402e-08
1.92578e-06
-2.0309e-05
-1.23612e-07
2.12957e-06
-1.96702e-05
-1.54329e-07
2.28388e-06
-1.87509e-05
-1.80973e-07
2.37812e-06
-1.75856e-05
-2.13253e-07
2.42667e-06
-1.62425e-05
-2.5056e-07
2.44071e-06
-1.48199e-05
-2.90115e-07
2.43615e-06
-1.34292e-05
-3.25363e-07
2.42812e-06
-1.21359e-05
-3.53785e-07
2.42858e-06
-1.0953e-05
-3.737e-07
2.44601e-06
-9.8572e-06
-3.85066e-07
2.48524e-06
-8.81068e-06
-3.88588e-07
2.5465e-06
-7.77612e-06
-3.84971e-07
2.62161e-06
-6.7284e-06
-3.74618e-07
2.69764e-06
-5.68413e-06
-3.5876e-07
2.77156e-06
-4.6643e-06
-3.38559e-07
2.84332e-06
-3.65675e-06
-3.14662e-07
2.91388e-06
-2.63987e-06
-2.86476e-07
2.98781e-06
-1.58676e-06
-2.5325e-07
3.0769e-06
-4.39739e-07
-2.12878e-07
3.21872e-06
7.7705e-07
-1.66454e-07
3.26631e-06
2.09955e-06
-1.21332e-07
3.1978e-06
3.87777e-06
-6.73824e-08
2.93013e-06
6.18532e-06
-9.09015e-09
2.40527e-06
9.12598e-06
4.66206e-08
1.67044e-06
1.26125e-05
9.04463e-08
9.16949e-07
1.59257e-05
1.15963e-07
3.4379e-07
1.75115e-05
1.28284e-07
-1.62694e-08
1.68368e-05
1.05911e-07
9.94584e-06
1.24238e-08
1.11581e-07
-6.51295e-06
2.69148e-08
2.35671e-07
-1.46834e-05
1.01291e-07
3.26875e-07
-1.87165e-05
1.16152e-07
4.21433e-07
-2.02782e-05
7.557e-08
5.41998e-07
-2.0771e-05
2.68754e-08
6.88841e-07
-2.07625e-05
-1.93502e-08
8.46359e-07
-2.0406e-05
-6.05868e-08
1.00882e-06
-1.97322e-05
-1.00559e-07
1.17084e-06
-1.87686e-05
-1.44557e-07
1.33224e-06
-1.75648e-05
-1.82371e-07
1.49057e-06
-1.61854e-05
-2.15531e-07
1.64112e-06
-1.47171e-05
-2.53489e-07
1.76866e-06
-1.32605e-05
-2.964e-07
1.85673e-06
-1.18911e-05
-3.33045e-07
1.91448e-06
-1.06499e-05
-3.61058e-07
1.95692e-06
-9.52035e-06
-3.79462e-07
1.9982e-06
-8.46329e-06
-3.88836e-07
2.04692e-06
-7.43486e-06
-3.90118e-07
2.1051e-06
-6.40267e-06
-3.8405e-07
2.16042e-06
-5.36777e-06
-3.71797e-07
2.20741e-06
-4.35653e-06
-3.54851e-07
2.24269e-06
-3.35822e-06
-3.33882e-07
2.26297e-06
-2.35208e-06
-3.08108e-07
2.26913e-06
-1.31609e-06
-2.76844e-07
2.27511e-06
-2.0695e-07
-2.38725e-07
2.32554e-06
9.23814e-07
-1.97092e-07
2.26304e-06
2.31005e-06
-1.47855e-07
2.10614e-06
4.12337e-06
-8.85329e-08
1.78925e-06
6.52977e-06
-2.73876e-08
1.26644e-06
9.6274e-06
2.15585e-08
6.43229e-07
1.31871e-05
4.87413e-08
1.78716e-07
1.63338e-05
5.66131e-08
-4.1818e-08
1.76783e-05
5.39335e-08
-1.06444e-07
1.68684e-05
3.32989e-08
9.85226e-06
-1.28811e-08
4.98732e-08
-6.61281e-06
4.94304e-08
9.91839e-08
-1.48781e-05
1.45057e-07
1.22521e-07
-1.89115e-05
1.71416e-07
1.52907e-07
-2.0447e-05
1.3825e-07
2.10357e-07
-2.09216e-05
9.2986e-08
3.02343e-07
-2.09018e-05
4.71924e-08
4.28896e-07
-2.05359e-05
3.1412e-09
5.95917e-07
-1.98585e-05
-4.0956e-08
8.0448e-07
-1.88913e-05
-8.59796e-08
1.04065e-06
-1.76684e-05
-1.32779e-07
1.28784e-06
-1.62527e-05
-1.8023e-07
1.52587e-06
-1.47335e-05
-2.21914e-07
1.7231e-06
-1.32034e-05
-2.54552e-07
1.87062e-06
-1.1746e-05
-2.9283e-07
1.96152e-06
-1.04118e-05
-3.29272e-07
2.01182e-06
-9.21502e-06
-3.5587e-07
2.04386e-06
-8.12282e-06
-3.72743e-07
2.07429e-06
-7.08482e-06
-3.80689e-07
2.11071e-06
-6.05869e-06
-3.80622e-07
2.14441e-06
-5.02809e-06
-3.73596e-07
2.1704e-06
-4.0213e-06
-3.61434e-07
2.18559e-06
-3.02857e-06
-3.45068e-07
2.18678e-06
-2.02935e-06
-3.24148e-07
2.1701e-06
-1.00108e-06
-2.98567e-07
2.1327e-06
9.73653e-08
-2.6715e-07
2.07202e-06
1.21477e-06
-2.30532e-07
1.93041e-06
2.63203e-06
-1.80634e-07
1.75342e-06
4.41522e-06
-1.15117e-07
1.57069e-06
6.75e-06
-3.77443e-08
1.35032e-06
9.81452e-06
3.301e-08
1.08933e-06
1.33751e-05
7.28121e-08
7.99046e-07
1.65416e-05
8.22781e-08
4.63441e-07
1.79376e-05
7.5873e-08
1.47314e-07
1.71356e-05
4.83846e-08
9.99243e-06
7.1518e-09
4.58092e-08
-6.7245e-06
6.54199e-08
6.60833e-08
-1.50789e-05
1.80241e-07
5.60399e-08
-1.91185e-05
2.16815e-07
5.45276e-08
-2.06365e-05
1.90823e-07
7.59472e-08
-2.10939e-05
1.50731e-07
1.253e-07
-2.10611e-05
1.09756e-07
2.04321e-07
-2.06857e-05
7.07192e-08
3.24053e-07
-2.0011e-05
3.2688e-08
4.97873e-07
-1.90583e-05
-7.10711e-09
7.31522e-07
-1.78503e-05
-5.20333e-08
1.01217e-06
-1.64298e-05
-1.03799e-07
1.30881e-06
-1.48703e-05
-1.60157e-07
1.58869e-06
-1.3267e-05
-2.16654e-07
1.82089e-06
-1.17177e-05
-2.60798e-07
1.99069e-06
-1.02858e-05
-2.96009e-07
2.10691e-06
-9.00121e-06
-3.30252e-07
2.18965e-06
-7.85142e-06
-3.54337e-07
2.26253e-06
-6.7891e-06
-3.68775e-07
2.33962e-06
-5.76121e-06
-3.74718e-07
2.4224e-06
-4.7379e-06
-3.73096e-07
2.5093e-06
-3.7424e-06
-3.65904e-07
2.60005e-06
-2.76503e-06
-3.54365e-07
2.69447e-06
-1.78512e-06
-3.38715e-07
2.78831e-06
-7.75408e-07
-3.19539e-07
2.86945e-06
3.12742e-07
-2.96504e-07
2.91968e-06
1.43539e-06
-2.70765e-07
2.89725e-06
2.89021e-06
-2.35552e-07
2.79457e-06
4.70486e-06
-1.86653e-07
2.6345e-06
7.02938e-06
-1.18862e-07
2.42507e-06
1.00634e-05
-3.89804e-08
2.06554e-06
1.36984e-05
3.6682e-08
1.48162e-06
1.70401e-05
8.56826e-08
8.27186e-07
1.84863e-05
1.05973e-07
2.52406e-07
1.76192e-05
9.14974e-08
1.02146e-05
3.01998e-08
2.58048e-08
-6.83202e-06
8.11123e-08
-1.95357e-08
-1.52453e-05
2.11442e-07
-1.07887e-07
-1.92882e-05
2.57886e-07
-1.82288e-07
-2.08026e-05
2.40392e-07
-2.29522e-07
-2.12534e-05
2.06604e-07
-2.4655e-07
-2.12153e-05
1.71122e-07
-2.34529e-07
-2.08343e-05
1.36421e-07
-1.86642e-07
-2.01605e-05
1.01377e-07
-8.45201e-08
-1.92241e-05
6.35577e-08
9.57453e-08
-1.80515e-05
2.07869e-08
3.66357e-07
-1.66719e-05
-2.87754e-08
7.09706e-07
-1.51281e-05
-8.58032e-08
1.07843e-06
-1.34879e-05
-1.48035e-07
1.41654e-06
-1.18467e-05
-2.09421e-07
1.69286e-06
-1.0302e-05
-2.60372e-07
1.89301e-06
-8.9061e-06
-2.95499e-07
2.03442e-06
-7.66537e-06
-3.27687e-07
2.14371e-06
-6.54951e-06
-3.49097e-07
2.24436e-06
-5.50116e-06
-3.60902e-07
2.34915e-06
-4.47849e-06
-3.64385e-07
2.45895e-06
-3.49089e-06
-3.61488e-07
2.57574e-06
-2.52841e-06
-3.53597e-07
2.70193e-06
-1.57038e-06
-3.41121e-07
2.82351e-06
-5.72418e-07
-3.24787e-07
2.94806e-06
4.92496e-07
-3.04549e-07
3.03031e-06
1.6353e-06
-2.82494e-07
3.04869e-06
3.12669e-06
-2.55325e-07
2.92338e-06
5.0517e-06
-2.22106e-07
2.57137e-06
7.55891e-06
-1.78158e-07
1.99967e-06
1.07491e-05
-1.14572e-07
1.28601e-06
1.44579e-05
-4.6373e-08
6.37618e-07
1.7687e-05
1.03611e-09
2.05052e-07
1.88917e-05
2.6702e-08
-3.2068e-08
1.78278e-05
2.78346e-08
1.0188e-05
-5.45723e-09
-2.71058e-08
-6.90084e-06
9.53699e-08
-1.44323e-07
-1.5362e-05
2.33564e-07
-3.08229e-07
-1.941e-05
2.85434e-07
-4.56819e-07
-2.09295e-05
2.75303e-07
-5.73505e-07
-2.13846e-05
2.47679e-07
-6.54132e-07
-2.13524e-05
2.17568e-07
-6.98281e-07
-2.09778e-05
1.87449e-07
-7.00805e-07
-2.03151e-05
1.56921e-07
-6.49197e-07
-1.94001e-05
1.24138e-07
-5.2399e-07
-1.82641e-05
8.71144e-08
-3.03906e-07
-1.69364e-05
4.4148e-08
1.76568e-08
-1.54432e-05
-6.68864e-09
4.1493e-07
-1.38194e-05
-6.61267e-08
8.26587e-07
-1.21272e-05
-1.31445e-07
1.18323e-06
-1.04634e-05
-1.95618e-07
1.45228e-06
-8.92512e-06
-2.50324e-07
1.62921e-06
-7.55605e-06
-2.86477e-07
1.74002e-06
-6.34339e-06
-3.17125e-07
1.81428e-06
-5.2389e-06
-3.36688e-07
1.87593e-06
-4.19384e-06
-3.46437e-07
1.92664e-06
-3.19321e-06
-3.48492e-07
1.96391e-06
-2.22128e-06
-3.44476e-07
1.98327e-06
-1.25492e-06
-3.34873e-07
1.97541e-06
-2.45332e-07
-3.19236e-07
1.9674e-06
7.98526e-07
-2.98e-07
1.88073e-06
1.99324e-06
-2.71244e-07
1.74877e-06
3.49467e-06
-2.36019e-07
1.53796e-06
5.45656e-06
-1.94143e-07
1.17187e-06
8.0747e-06
-1.4988e-07
6.25754e-07
1.14019e-05
-1.06948e-07
8.79666e-08
1.5065e-05
-6.95679e-08
-1.58474e-07
1.79804e-05
-4.71054e-08
-2.06118e-07
1.89805e-05
-4.13896e-08
-1.51653e-07
1.78004e-05
-2.7381e-08
1.00626e-05
-2.62695e-08
-5.96056e-08
-6.94757e-06
1.0584e-07
-2.24093e-07
-1.54442e-05
2.46422e-07
-4.35289e-07
-1.94997e-05
3.00672e-07
-6.31951e-07
-2.1028e-05
2.94947e-07
-7.93666e-07
-2.14949e-05
2.71898e-07
-9.1616e-07
-2.14765e-05
2.46454e-07
-9.96124e-07
-2.11192e-05
2.21154e-07
-1.02737e-06
-2.04799e-05
1.95925e-07
-1.00037e-06
-1.95964e-05
1.69151e-07
-9.02755e-07
-1.85008e-05
1.38892e-07
-7.19792e-07
-1.72234e-05
1.03772e-07
-4.36324e-07
-1.57892e-05
6.21389e-08
-5.01843e-08
-1.42179e-05
1.20196e-08
4.0643e-07
-1.25365e-05
-4.77082e-08
8.62566e-07
-1.08052e-05
-1.14762e-07
1.24117e-06
-9.12256e-06
-1.81578e-07
1.51027e-06
-7.58725e-06
-2.38273e-07
1.67403e-06
-6.23211e-06
-2.75359e-07
1.77354e-06
-5.03419e-06
-3.04519e-07
1.83814e-06
-3.93526e-06
-3.2345e-07
1.88048e-06
-2.90309e-06
-3.32709e-07
1.90074e-06
-1.90714e-06
-3.34634e-07
1.88983e-06
-9.13959e-07
-3.30266e-07
1.84714e-06
1.16968e-07
-3.19796e-07
1.78577e-06
1.16296e-06
-3.0322e-07
1.62814e-06
2.42836e-06
-2.77594e-07
1.4153e-06
3.94743e-06
-2.39918e-07
1.20673e-06
5.85311e-06
-1.87833e-07
1.04371e-06
8.36287e-06
-1.2481e-07
8.86556e-07
1.16239e-05
-6.4333e-08
7.3322e-07
1.5241e-05
-2.22074e-08
5.96817e-07
1.81171e-05
6.66105e-11
4.00663e-07
1.91698e-05
7.32886e-09
1.69331e-07
1.80303e-05
2.06063e-09
1.02272e-05
4.70107e-09
-6.29991e-08
-6.99751e-06
1.12436e-07
-2.38838e-07
-1.55203e-05
2.51673e-07
-4.73795e-07
-1.95686e-05
3.03715e-07
-6.9309e-07
-2.11122e-05
3.03393e-07
-8.77543e-07
-2.15939e-05
2.833e-07
-1.02342e-06
-2.15923e-05
2.61474e-07
-1.12575e-06
-2.12579e-05
2.40941e-07
-1.17758e-06
-2.06499e-05
2.2162e-07
-1.16964e-06
-1.98066e-05
2.02001e-07
-1.09087e-06
-1.87596e-05
1.79805e-07
-9.30558e-07
-1.75372e-05
1.53282e-07
-6.7673e-07
-1.6164e-05
1.20712e-07
-3.16874e-07
-1.46584e-05
8.02748e-08
1.49367e-07
-1.30334e-05
3.02808e-08
6.84941e-07
-1.13114e-05
-2.97194e-08
1.21014e-06
-9.55143e-06
-9.67213e-08
1.64085e-06
-7.85458e-06
-1.63775e-07
1.9503e-06
-6.31932e-06
-2.22608e-07
2.15574e-06
-4.97735e-06
-2.62584e-07
2.30328e-06
-3.79033e-06
-2.92748e-07
2.42104e-06
-2.70903e-06
-3.12073e-07
2.52717e-06
-1.69105e-06
-3.22467e-07
2.62439e-06
-6.8558e-07
-3.25856e-07
2.70566e-06
3.58854e-07
-3.23417e-07
2.76298e-06
1.42117e-06
-3.15822e-07
2.75262e-06
2.74017e-06
-3.01791e-07
2.66138e-06
4.31702e-06
-2.7873e-07
2.51259e-06
6.24262e-06