/*--------------------------------*- C++ -*----------------------------------*\
| =========                 |                                                 |
| \\      /  F ield         | OpenFOAM: The Open Source CFD Toolbox           |
|  \\    /   O peration     | Version:  2.3.x                                 |
|   \\  /    A nd           | Web:      www.OpenFOAM.org                      |
|    \\/     M anipulation  |                                                 |
\*---------------------------------------------------------------------------*/
FoamFile
{
    version     2.0;
    format      ascii;
    class       volScalarField;
    location    "1000";
    object      T;
}
// * * * * * * * * * * * * * * * * * * * * * * * * * * * * * * * * * * * * * //

dimensions      [0 0 0 1 0 0 0];

internalField   nonuniform List<scalar> 
78750
(
288.764
289.577
289.909
289.996
290.014
290.064
290.138
290.223
290.307
290.385
290.451
290.51
290.566
290.618
290.666
290.712
290.753
290.79
290.823
290.852
290.878
290.9
290.919
290.934
290.946
290.955
290.959
290.96
290.96
290.96
290.96
290.967
291.088
292.595
300.39
288.474
288.953
289.19
289.328
289.503
289.696
289.893
290.074
290.235
290.377
290.51
290.636
290.755
290.867
290.973
291.069
291.153
291.227
291.292
291.347
291.393
291.43
291.46
291.481
291.495
291.498
291.495
291.476
291.444
291.393
291.316
291.277
291.459
293.496
300.91
288.344
288.71
289.052
289.403
289.751
290.06
290.318
290.53
290.71
290.869
291.01
291.135
291.245
291.339
291.419
291.492
291.557
291.614
291.663
291.705
291.74
291.766
291.783
291.793
291.793
291.789
291.774
291.75
291.714
291.66
291.619
291.697
292.576
295.272
301.645
288.436
288.981
289.476
289.884
290.194
290.425
290.609
290.765
290.902
291.019
291.122
291.215
291.301
291.381
291.455
291.526
291.592
291.649
291.698
291.74
291.773
291.798
291.814
291.823
291.824
291.819
291.807
291.79
291.769
291.762
291.821
292.275
293.751
296.741
302.619
288.451
289.025
289.522
289.924
290.226
290.452
290.632
290.785
290.923
291.051
291.17
291.284
291.391
291.49
291.581
291.662
291.733
291.793
291.841
291.878
291.905
291.923
291.931
291.93
291.92
291.905
291.888
291.873
291.874
291.917
292.154
292.926
294.707
297.77
303.311
288.492
289.121
289.64
290.037
290.323
290.536
290.71
290.861
290.998
291.125
291.243
291.353
291.452
291.541
291.622
291.693
291.755
291.809
291.854
291.891
291.918
291.936
291.945
291.947
291.943
291.935
291.93
291.933
291.967
292.094
292.481
293.484
295.426
298.521
303.828
288.496
289.128
289.649
290.045
290.329
290.542
290.716
290.867
291.004
291.132
291.251
291.363
291.468
291.565
291.655
291.737
291.81
291.873
291.926
291.968
292
292.02
292.03
292.031
292.027
292.02
292.019
292.035
292.105
292.305
292.822
293.993
296.019
299.082
304.163
288.506
289.156
289.69
290.089
290.372
290.585
290.76
290.914
291.055
291.186
291.31
291.426
291.533
291.633
291.724
291.806
291.877
291.938
291.988
292.029
292.059
292.08
292.093
292.097
292.096
292.094
292.1
292.129
292.222
292.468
293.067
294.344
296.427
299.474
304.387
288.517
289.188
289.734
290.139
290.425
290.64
290.817
290.973
291.116
291.249
291.374
291.493
291.606
291.711
291.808
291.894
291.969
292.033
292.085
292.126
292.156
292.176
292.187
292.188
292.185
292.182
292.188
292.224
292.33
292.601
293.245
294.586
296.712
299.757
304.548
288.531
289.226
289.79
290.2
290.487
290.702
290.881
291.039
291.186
291.323
291.454
291.578
291.694
291.801
291.898
291.983
292.056
292.118
292.169
292.21
292.241
292.263
292.276
292.28
292.279
292.279
292.29
292.338
292.469
292.789
293.513
294.938
297.078
300.078
304.727
288.546
289.267
289.847
290.264
290.552
290.768
290.949
291.11
291.259
291.399
291.533
291.661
291.78
291.887
291.982
292.063
292.133
292.192
292.24
292.279
292.31
292.333
292.349
292.358
292.363
292.369
292.389
292.447
292.598
292.957
293.74
295.224
297.36
300.309
304.847
288.559
289.307
289.909
290.337
290.629
290.849
291.035
291.202
291.359
291.508
291.651
291.785
291.907
292.014
292.106
292.184
292.248
292.3
292.342
292.376
292.401
292.42
292.434
292.442
292.449
292.459
292.485
292.549
292.707
293.078
293.883
295.396
297.535
300.461
304.928
288.583
289.372
289.999
290.434
290.727
290.95
291.141
291.314
291.477
291.633
291.783
291.92
292.042
292.147
292.234
292.305
292.362
292.407
292.443
292.471
292.492
292.508
292.52
292.53
292.54
292.556
292.592
292.674
292.864
293.282
294.151
295.724
297.846
300.7
305.052
288.604
289.429
290.079
290.521
290.817
291.043
291.24
291.421
291.596
291.763
291.921
292.063
292.186
292.288
292.369
292.432
292.481
292.518
292.547
292.569
292.585
292.597
292.607
292.616
292.628
292.65
292.697
292.804
293.045
293.55
294.524
296.156
298.214
300.946
305.167
288.632
289.502
290.173
290.617
290.913
291.143
291.345
291.536
291.72
291.895
292.058
292.202
292.324
292.421
292.496
292.553
292.597
292.63
292.654
292.672
292.685
292.695
292.704
292.712
292.724
292.745
292.789
292.887
293.116
293.612
294.588
296.226
298.281
301.003
305.194
288.653
289.55
290.23
290.672
290.968
291.2
291.407
291.604
291.793
291.974
292.14
292.285
292.407
292.504
292.579
292.637
292.682
292.717
292.743
292.763
292.778
292.79
292.801
292.815
292.834
292.866
292.922
293.031
293.26
293.75
294.733
296.408
298.457
301.131
305.264
288.668
289.583
290.269
290.711
291.005
291.239
291.449
291.649
291.841
292.023
292.19
292.337
292.462
292.563
292.643
292.705
292.754
292.792
292.822
292.846
292.865
292.88
292.896
292.915
292.943
292.99
293.077
293.244
293.567
294.177
295.265
296.957
298.886
301.394
305.38
288.673
289.594
290.282
290.725
291.021
291.257
291.469
291.67
291.863
292.045
292.214
292.366
292.497
292.606
292.693
292.762
292.815
292.858
292.893
292.922
292.946
292.966
292.987
293.009
293.038
293.085
293.174
293.352
293.708
294.372
295.506
297.188
299.061
301.498
305.41
288.68
289.611
290.302
290.745
291.042
291.28
291.493
291.695
291.887
292.071
292.242
292.398
292.534
292.649
292.743
292.818
292.877
292.924
292.963
292.996
293.026
293.053
293.08
293.11
293.145
293.193
293.27
293.416
293.725
294.378
295.512
297.197
299.072
301.506
305.411
288.685
289.623
290.319
290.764
291.064
291.304
291.52
291.723
291.915
292.098
292.268
292.426
292.567
292.688
292.79
292.871
292.936
292.988
293.031
293.069
293.103
293.136
293.172
293.213
293.264
293.334
293.437
293.604
293.9
294.474
295.58
297.307
299.187
301.587
305.454
288.688
289.629
290.325
290.772
291.074
291.318
291.537
291.741
291.933
292.113
292.283
292.44
292.585
292.715
292.826
292.917
292.99
293.049
293.098
293.14
293.178
293.215
293.255
293.303
293.366
293.459
293.607
293.855
294.273
294.982
296.156
297.826
299.583
301.854
305.567
288.69
289.632
290.329
290.776
291.079
291.324
291.544
291.748
291.939
292.118
292.285
292.441
292.587
292.723
292.846
292.95
293.035
293.104
293.161
293.209
293.252
293.294
293.336
293.384
293.446
293.537
293.687
293.952
294.417
295.202
296.407
298.013
299.705
301.916
305.573
288.69
289.634
290.332
290.78
291.085
291.33
291.55
291.753
291.943
292.121
292.287
292.442
292.587
292.723
292.851
292.968
293.068
293.15
293.217
293.275
293.326
293.374
293.423
293.476
293.538
293.622
293.751
293.98
294.419
295.179
296.386
298.015
299.709
301.917
305.564
288.691
289.635
290.332
290.782
291.09
291.337
291.556
291.759
291.947
292.122
292.287
292.442
292.587
292.723
292.851
292.973
293.086
293.183
293.265
293.333
293.394
293.452
293.512
293.578
293.656
293.758
293.899
294.113
294.48
295.19
296.394
298.034
299.745
301.943
305.588
288.692
289.635
290.332
290.782
291.091
291.339
291.559
291.76
291.947
292.122
292.285
292.438
292.582
292.72
292.85
292.973
293.091
293.202
293.298
293.381
293.453
293.52
293.588
293.666
293.763
293.899
294.095
294.391
294.856
295.602
296.792
298.403
300.04
302.166
305.681
288.692
289.635
290.33
290.781
291.091
291.339
291.559
291.76
291.946
292.119
292.28
292.431
292.574
292.71
292.84
292.966
293.088
293.204
293.314
293.414
293.5
293.577
293.652
293.732
293.833
293.974
294.185
294.518
295.049
295.88
297.099
298.636
300.208
302.279
305.716
288.69
289.631
290.326
290.778
291.089
291.339
291.559
291.76
291.944
292.115
292.275
292.424
292.565
292.699
292.828
292.954
293.077
293.198
293.315
293.427
293.534
293.628
293.716
293.806
293.911
294.05
294.251
294.563
295.072
295.9
297.123
298.662
300.229
302.289
305.718
288.688
289.625
290.319
290.773
291.086
291.337
291.557
291.757
291.941
292.111
292.268
292.415
292.553
292.685
292.812
292.936
293.059
293.182
293.305
293.427
293.546
293.661
293.77
293.878
294.002
294.163
294.389
294.728
295.261
296.097
297.331
298.84
300.371
302.397
305.759
288.685
289.618
290.312
290.769
291.084
291.336
291.557
291.757
291.941
292.111
292.268
292.414
292.551
292.68
292.803
292.922
293.04
293.16
293.283
293.41
293.538
293.667
293.794
293.92
294.061
294.238
294.487
294.861
295.436
296.306
297.535
298.995
300.483
302.475
305.783
288.682
289.612
290.309
290.769
291.086
291.339
291.561
291.761
291.945
292.114
292.271
292.417
292.553
292.681
292.803
292.92
293.036
293.151
293.268
293.391
293.522
293.659
293.799
293.94
294.091
294.27
294.512
294.876
295.45
296.327
297.557
299.015
300.495
302.477
305.78
288.681
289.611
290.311
290.776
291.097
291.354
291.577
291.778
291.963
292.132
292.289
292.434
292.569
292.696
292.816
292.931
293.043
293.155
293.269
293.388
293.517
293.658
293.81
293.97
294.142
294.339
294.584
294.93
295.47
296.336
297.57
299.038
300.52
302.493
305.786
288.681
289.616
290.322
290.792
291.118
291.377
291.602
291.806
291.993
292.164
292.323
292.469
292.605
292.731
292.85
292.963
293.072
293.18
293.289
293.403
293.527
293.666
293.826
294.01
294.219
294.464
294.768
295.174
295.766
296.648
297.884
299.287
300.718
302.667
305.86
288.684
289.626
290.34
290.814
291.142
291.403
291.63
291.836
292.025
292.2
292.362
292.511
292.649
292.777
292.897
293.009
293.117
293.221
293.325
293.432
293.547
293.677
293.833
294.021
294.248
294.528
294.888
295.367
296.03
296.952
298.157
299.48
300.852
302.759
305.887
288.691
289.647
290.369
290.846
291.176
291.438
291.667
291.874
292.065
292.241
292.403
292.554
292.694
292.823
292.944
293.058
293.167
293.271
293.374
293.478
293.588
293.708
293.849
294.019
294.233
294.512
294.881
295.377
296.059
296.997
298.201
299.51
300.868
302.762
305.881
288.699
289.667
290.398
290.881
291.214
291.479
291.711
291.92
292.111
292.288
292.451
292.601
292.741
292.871
292.992
293.107
293.215
293.319
293.422
293.526
293.636
293.758
293.895
294.054
294.248
294.51
294.873
295.37
296.059
297.001
298.209
299.517
300.874
302.767
305.884
288.705
289.685
290.425
290.912
291.249
291.518
291.754
291.966
292.161
292.339
292.504
292.655
292.795
292.925
293.046
293.159
293.268
293.372
293.474
293.577
293.685
293.807
293.95
294.123
294.336
294.607
294.966
295.461
296.163
297.139
298.373
299.662
300.999
302.885
305.939
288.715
289.712
290.462
290.952
291.291
291.563
291.802
292.018
292.216
292.397
292.565
292.719
292.86
292.991
293.113
293.226
293.333
293.435
293.534
293.634
293.738
293.852
293.987
294.157
294.381
294.68
295.083
295.628
296.366
297.349
298.547
299.778
301.076
302.937
305.952
288.725
289.739
290.498
290.991
291.333
291.61
291.852
292.072
292.273
292.457
292.627
292.784
292.928
293.061
293.185
293.301
293.41
293.513
293.613
293.712
293.813
293.921
294.043
294.193
294.392
294.674
295.076
295.631
296.382
297.369
298.565
299.794
301.085
302.938
305.948
288.734
289.762
290.528
291.023
291.368
291.648
291.894
292.118
292.322
292.51
292.683
292.841
292.988
293.124
293.251
293.37
293.483
293.591
293.695
293.797
293.901
294.011
294.134
294.278
294.454
294.695
295.076
295.63
296.384
297.375
298.575
299.802
301.092
302.947
305.952
288.744
289.788
290.559
291.056
291.402
291.685
291.935
292.162
292.369
292.559
292.733
292.893
293.041
293.178
293.306
293.427
293.543
293.655
293.764
293.872
293.982
294.101
294.239
294.405
294.61
294.869
295.215
295.731
296.486
297.51
298.732
299.93
301.207
303.078
306.017
288.751
289.804
290.581
291.08
291.43
291.717
291.971
292.202
292.413
292.605
292.781
292.942
293.09
293.227
293.356
293.479
293.597
293.711
293.823
293.934
294.047
294.167
294.308
294.487
294.727
295.047
295.47
296.039
296.813
297.825
298.99
300.12
301.356
303.205
306.064
288.756
289.815
290.595
291.097
291.45
291.742
292.002
292.238
292.453
292.649
292.827
292.989
293.138
293.275
293.404
293.526
293.644
293.759
293.872
293.985
294.099
294.219
294.354
294.521
294.747
295.068
295.518
296.13
296.934
297.934
299.068
300.166
301.376
303.202
306.056
288.759
289.823
290.607
291.111
291.468
291.765
292.03
292.272
292.492
292.692
292.874
293.038
293.189
293.327
293.457
293.579
293.698
293.813
293.928
294.043
294.16
294.282
294.417
294.574
294.774
295.06
295.489
296.102
296.919
297.934
299.069
300.169
301.377
303.196
306.048
288.762
289.829
290.612
291.117
291.48
291.783
292.056
292.304
292.53
292.735
292.92
293.088
293.242
293.383
293.514
293.638
293.757
293.873
293.989
294.105
294.226
294.354
294.499
294.667
294.864
295.119
295.499
296.102
296.921
297.944
299.082
300.183
301.39
303.216
306.061
288.763
289.831
290.613
291.118
291.482
291.792
292.071
292.325
292.557
292.767
292.957
293.129
293.285
293.43
293.565
293.692
293.815
293.934
294.053
294.171
294.294
294.426
294.58
294.768
295.01
295.325
295.739
296.299
297.099
298.14
299.293
300.358
301.547
303.37
306.133
288.763
289.831
290.613
291.117
291.482
291.795
292.08
292.341
292.579
292.795
292.989
293.164
293.323
293.47
293.607
293.737
293.863
293.986
294.108
294.229
294.352
294.482
294.631
294.818
295.069
295.42
295.896
296.526
297.349
298.364
299.455
300.472
301.625
303.415
306.14
288.763
289.83
290.611
291.115
291.481
291.796
292.087
292.355
292.6
292.822
293.02
293.198
293.36
293.509
293.648
293.781
293.909
294.036
294.161
294.287
294.413
294.542
294.684
294.852
295.074
295.399
295.869
296.515
297.354
298.375
299.459
300.472
301.616
303.39
306.121
288.762
289.829
290.607
291.109
291.476
291.795
292.089
292.365
292.617
292.846
293.05
293.233
293.399
293.55
293.692
293.827
293.958
294.088
294.219
294.35
294.483
294.619
294.764
294.924
295.119
295.401
295.846
296.486
297.339
298.368
299.459
300.474
301.617
303.39
306.121
288.762
289.827
290.602
291.101
291.468
291.79
292.088
292.369
292.627
292.862
293.072
293.26
293.429
293.585
293.73
293.869
294.003
294.138
294.274
294.413
294.557
294.709
294.876
295.063
295.278
295.543
295.92
296.507
297.355
298.401
299.505
300.514
301.655
303.439
306.151
288.761
289.822
290.592
291.089
291.456
291.78
292.085
292.37
292.634
292.874
293.089
293.281
293.454
293.612
293.76
293.901
294.038
294.175
294.313
294.456
294.606
294.772
294.964
295.197
295.483
295.832
296.272
296.868
297.685
298.703
299.749
300.714
301.84
303.615
306.231
288.759
289.818
290.587
291.082
291.448
291.772
292.08
292.371
292.641
292.886
293.106
293.301
293.477
293.637
293.787
293.929
294.068
294.206
294.345
294.487
294.636
294.8
294.995
295.242
295.564
295.978
296.497
297.15
297.97
298.936
299.922
300.84
301.931
303.669
306.241
288.758
289.816
290.583
291.076
291.442
291.767
292.077
292.373
292.648
292.899
293.122
293.321
293.499
293.661
293.813
293.957
294.098
294.237
294.377
294.519
294.665
294.822
295.003
295.23
295.535
295.95
296.494
297.174
298.006
298.961
299.925
300.828
301.905
303.636
306.222
288.758
289.814
290.581
291.074
291.438
291.764
292.076
292.378
292.659
292.915
293.142
293.343
293.522
293.685
293.838
293.984
294.127
294.27
294.413
294.559
294.706
294.861
295.031
295.233
295.504
295.879
296.392
297.077
297.923
298.891
299.87
300.79
301.862
303.567
306.184
288.76
289.822
290.59
291.082
291.447
291.775
292.09
292.394
292.679
292.939
293.169
293.371
293.551
293.714
293.866
294.012
294.157
294.303
294.452
294.605
294.763
294.926
295.099
295.294
295.537
295.879
296.375
297.048
297.899
298.877
299.869
300.791
301.863
303.569
306.186
288.763
289.828
290.597
291.089
291.454
291.782
292.099
292.408
292.699
292.964
293.198
293.402
293.582
293.744
293.896
294.041
294.186
294.334
294.487
294.649
294.819
295.002
295.201
295.429
295.694
296.018
296.459
297.091
297.934
298.926
299.925
300.842
301.914
303.632
306.222
288.767
289.839
290.611
291.103
291.467
291.795
292.112
292.423
292.719
292.988
293.225
293.432
293.613
293.776
293.926
294.07
294.214
294.361
294.515
294.68
294.858
295.056
295.285
295.556
295.88
296.271
296.759
297.397
298.218
299.173
300.123
301.007
302.067
303.769
306.282
288.77
289.845
290.618
291.11
291.473
291.799
292.115
292.424
292.724
293.002
293.247
293.458
293.642
293.805
293.955
294.098
294.24
294.386
294.538
294.7
294.878
295.078
295.314
295.603
295.962
296.406
296.953
297.626
298.438
299.349
300.249
301.099
302.133
303.807
306.289
288.771
289.847
290.621
291.113
291.476
291.801
292.116
292.425
292.724
293.005
293.259
293.478
293.666
293.832
293.982
294.125
294.266
294.41
294.561
294.721
294.895
295.089
295.315
295.594
295.947
296.396
296.957
297.648
298.466
299.364
300.248
301.091
302.114
303.778
306.271
288.772
289.85
290.624
291.117
291.479
291.803
292.116
292.424
292.723
293.005
293.262
293.491
293.686
293.856
294.008
294.151
294.292
294.436
294.588
294.749
294.921
295.109
295.326
295.592
295.932
296.369
296.928
297.625
298.449
299.353
300.245
301.089
302.105
303.753
306.257
288.772
289.852
290.627
291.12
291.481
291.803
292.116
292.423
292.72
293.002
293.262
293.495
293.701
293.877
294.034
294.179
294.321
294.466
294.619
294.784
294.962
295.158
295.382
295.643
295.961
296.375
296.928
297.624
298.45
299.356
300.249
301.092
302.108
303.758
306.262
288.774
289.854
290.629
291.121
291.482
291.803
292.11
292.411
292.704
292.986
293.251
293.491
293.704
293.892
294.055
294.204
294.348
294.493
294.647
294.814
294.999
295.207
295.45
295.74
296.09
296.519
297.051
297.727
298.547
299.452
300.334
301.165
302.177
303.827
306.294
288.774
289.854
290.629
291.121
291.481
291.796
292.096
292.389
292.676
292.955
293.222
293.47
293.695
293.893
294.067
294.223
294.369
294.515
294.667
294.832
295.014
295.221
295.467
295.769
296.143
296.607
297.176
297.866
298.673
299.546
300.398
301.212
302.212
303.843
306.295
288.773
289.853
290.628
291.121
291.479
291.792
292.088
292.373
292.651
292.924
293.188
293.44
293.674
293.884
294.07
294.236
294.389
294.538
294.69
294.851
295.023
295.218
295.451
295.737
296.101
296.565
297.144
297.842
298.647
299.511
300.357
301.17
302.167
303.793
306.269
288.773
289.853
290.63
291.122
291.479
291.79
292.08
292.358
292.628
292.892
293.151
293.403
293.643
293.865
294.065
294.243
294.407
294.564
294.722
294.884
295.052
295.237
295.453
295.718
296.051
296.481
297.033
297.726
298.541
299.428
300.303
301.133
302.128
303.745
306.244
288.772
289.854
290.633
291.127
291.484
291.791
292.075
292.347
292.609
292.865
293.117
293.365
293.607
293.837
294.05
294.243
294.421
294.591
294.762
294.936
295.118
295.314
295.526
295.765
296.065
296.478
297.024
297.715
298.538
299.429
300.306
301.135
302.13
303.75
306.249
288.773
289.854
290.634
291.132
291.489
291.793
292.074
292.339
292.594
292.84
293.083
293.325
293.565
293.8
294.023
294.23
294.422
294.606
294.792
294.988
295.199
295.428
295.675
295.942
296.244
296.612
297.112
297.783
298.611
299.515
300.378
301.191
302.192
303.829
306.291
288.77
289.849
290.633
291.133
291.491
291.795
292.072
292.333
292.581
292.82
293.054
293.287
293.519
293.751
293.978
294.194
294.399
294.596
294.795
295.006
295.24
295.505
295.801
296.128
296.491
296.912
297.432
298.09
298.883
299.733
300.542
301.329
302.322
303.942
306.338
288.767
289.841
290.631
291.135
291.495
291.799
292.075
292.334
292.58
292.815
293.041
293.261
293.481
293.703
293.926
294.145
294.355
294.559
294.764
294.98
295.223
295.503
295.826
296.197
296.619
297.101
297.662
298.323
299.08
299.874
300.64
301.402
302.375
303.972
306.344
288.762
289.838
290.632
291.146
291.51
291.814
292.091
292.348
292.592
292.823
293.044
293.259
293.47
293.681
293.889
294.098
294.306
294.509
294.71
294.916
295.145
295.418
295.751
296.149
296.608
297.115
297.698
298.367
299.113
299.888
300.643
301.4
302.368
303.959
306.334
288.761
289.84
290.649
291.174
291.545
291.855
292.135
292.396
292.641
292.87
293.086
293.291
293.489
293.687
293.885
294.085
294.284
294.482
294.676
294.869
295.078
295.32
295.609
295.963
296.401
296.939
297.555
298.243
298.988
299.754
300.507
301.263
302.22
303.802
306.253
288.762
289.853
290.676
291.212
291.59
291.906
292.193
292.461
292.713
292.948
293.165
293.367
293.558
293.744
293.93
294.118
294.309
294.502
294.692
294.881
295.081
295.308
295.571
295.888
296.281
296.769
297.363
298.058
298.832
299.641
300.435
301.214
302.179
303.769
306.245
288.772
289.887
290.728
291.271
291.656
291.98
292.277
292.558
292.822
293.064
293.283
293.48
293.663
293.838
294.014
294.193
294.378
294.568
294.76
294.955
295.161
295.384
295.63
295.921
296.286
296.762
297.35
298.05
298.831
299.646
300.441
301.218
302.186
303.791
306.26
288.791
289.939
290.799
291.351
291.744
292.081
292.394
292.691
292.97
293.221
293.441
293.632
293.802
293.962
294.122
294.288
294.463
294.651
294.848
295.058
295.286
295.535
295.805
296.108
296.465
296.906
297.474
298.174
298.969
299.781
300.547
301.305
302.277
303.881
306.305
288.814
290.001
290.878
291.439
291.844
292.197
292.53
292.851
293.151
293.415
293.636
293.819
293.974
294.115
294.256
294.404
294.566
294.743
294.94
295.161
295.41
295.688
295.994
296.334
296.724
297.192
297.765
298.449
299.205
299.963
300.687
301.426
302.393
303.986
306.352
288.849
290.081
290.968
291.529
291.94
292.307
292.664
293.014
293.337
293.615
293.841
294.018
294.162
294.288
294.411
294.54
294.684
294.845
295.035
295.261
295.526
295.831
296.174
296.552
296.974
297.462
298.034
298.692
299.4
300.109
300.802
301.529
302.496
304.082
306.394
288.876
290.139
291.025
291.58
291.993
292.371
292.74
293.098
293.437
293.738
293.982
294.167
294.311
294.433
294.546
294.661
294.787
294.93
295.106
295.326
295.599
295.927
296.3
296.712
297.162
297.664
298.23
298.86
299.532
300.21
300.881
301.596
302.558
304.129
306.406
288.891
290.159
291.036
291.587
292.001
292.379
292.745
293.102
293.441
293.75
294.016
294.235
294.407
294.539
294.652
294.76
294.872
294.997
295.152
295.351
295.605
295.925
296.312
296.752
297.235
297.758
298.33
298.948
299.598
300.256
300.913
301.615
302.559
304.122
306.401
288.891
290.155
291.025
291.57
291.978
292.345
292.697
293.041
293.38
293.701
293.991
294.236
294.434
294.594
294.723
294.834
294.94
295.055
295.191
295.36
295.58
295.869
296.24
296.688
297.194
297.743
298.327
298.947
299.596
300.252
300.905
301.601
302.541
304.099
306.388
288.871
290.116
290.984
291.529
291.936
292.3
292.644
292.972
293.289
293.605
293.91
294.187
294.422
294.61
294.76
294.885
294.996
295.108
295.23
295.376
295.561
295.799
296.114
296.517
297.004
297.558
298.167
298.81
299.468
300.122
300.778
301.481
302.419
303.983
306.334
288.87
290.114
290.982
291.528
291.935
292.299
292.642
292.969
293.282
293.584
293.876
294.153
294.403
294.615
294.788
294.93
295.054
295.171
295.291
295.425
295.583
295.791
296.063
296.413
296.854
297.379
297.977
298.628
299.311
300.004
300.694
301.408
302.343
303.914
306.302
288.872
290.12
290.988
291.534
291.942
292.305
292.644
292.966
293.273
293.571
293.86
294.138
294.396
294.622
294.814
294.974
295.114
295.244
295.373
295.51
295.662
295.842
296.077
296.404
296.822
297.334
297.928
298.585
299.287
299.997
300.691
301.404
302.34
303.913
306.303
288.871
290.119
290.987
291.535
291.942
292.304
292.641
292.958
293.258
293.542
293.822
294.1
294.368
294.613
294.825
295.006
295.164
295.31
295.457
295.611
295.78
295.972
296.198
296.477
296.849
297.338
297.929
298.591
299.297
300.01
300.7
301.412
302.355
303.936
306.318
288.871
290.121
290.989
291.538
291.948
292.312
292.651
292.966
293.261
293.539
293.806
294.071
294.334
294.587
294.815
295.014
295.189
295.351
295.514
295.689
295.885
296.11
296.373
296.685
297.064
297.526
298.09
298.747
299.447
300.135
300.804
301.507
302.449
304.023
306.357
288.875
290.132
291.007
291.558
291.971
292.339
292.679
292.992
293.279
293.547
293.805
294.058
294.312
294.561
294.795
295.004
295.19
295.362
295.534
295.72
295.931
296.179
296.476
296.829
297.246
297.733
298.295
298.922
299.581
300.236
300.882
301.57
302.499
304.055
306.365
288.874
290.133
291.008
291.563
291.981
292.354
292.697
293.01
293.295
293.557
293.806
294.051
294.295
294.538
294.772
294.986
295.179
295.356
295.529
295.714
295.924
296.172
296.474
296.841
297.276
297.78
298.346
298.962
299.604
300.246
300.885
301.57
302.496
304.048
306.36
288.873
290.133
291.01
291.567
291.99
292.369
292.717
293.034
293.318
293.577
293.818
294.054
294.291
294.529
294.761
294.978
295.174
295.354
295.528
295.709
295.91
296.141
296.42
296.768
297.196
297.702
298.273
298.889
299.529
300.17
300.81
301.493
302.409
303.956
306.313
288.878
290.149
291.031
291.591
292.019
292.406
292.76
293.078
293.36
293.613
293.848
294.077
294.309
294.545
294.779
295.001
295.204
295.39
295.563
295.735
295.92
296.139
296.405
296.731
297.135
297.624
298.193
298.821
299.478
300.138
300.79
301.475
302.39
303.94
306.308
288.881
290.158
291.04
291.604
292.038
292.433
292.796
293.119
293.401
293.651
293.88
294.102
294.328
294.565
294.807
295.042
295.263
295.465
295.651
295.828
296.008
296.202
296.435
296.736
297.133
297.621
298.19
298.821
299.481
300.141
300.792
301.477
302.394
303.946
306.315
288.886
290.169
291.052
291.618
292.058
292.461
292.831
293.159
293.441
293.686
293.908
294.122
294.341
294.574
294.821
295.072
295.315
295.542
295.753
295.953
296.151
296.36
296.596
296.877
297.23
297.686
298.244
298.878
299.543
300.196
300.836
301.52
302.447
304.006
306.345
288.89
290.179
291.067
291.636
292.084
292.498
292.877
293.209
293.49
293.73
293.943
294.144
294.349
294.571
294.813
295.069
295.327
295.578
295.817
296.047
296.278
296.52
296.787
297.095
297.465
297.915
298.452
299.055
299.685
300.311
300.934
301.611
302.534
304.082
306.378
288.893
290.186
291.078
291.652
292.107
292.533
292.923
293.261
293.543
293.779
293.983
294.173
294.363
294.567
294.792
295.04
295.304
295.568
295.823
296.075
296.332
296.605
296.904
297.243
297.636
298.093
298.615
299.188
299.786
300.387
300.995
301.661
302.574
304.105
306.381
288.895
290.195
291.092
291.671
292.135
292.573
292.974
293.317
293.598
293.83
294.028
294.207
294.383
294.568
294.774
295.004
295.258
295.523
295.79
296.056
296.326
296.611
296.924
297.275
297.678
298.14
298.658
299.222
299.808
300.4
301.003
301.666
302.573
304.098
306.375
288.898
290.208
291.113
291.698
292.173
292.626
293.04
293.389
293.67
293.898
294.088
294.258
294.421
294.589
294.775
294.985
295.222
295.48
295.75
296.024
296.305
296.601
296.92
297.276
297.68
298.142
298.661
299.224
299.809
300.401
301.004
301.666
302.573
304.094
306.371
288.903
290.224
291.137
291.73
292.216
292.684
293.11
293.464
293.746
293.97
294.155
294.317
294.47
294.626
294.795
294.987
295.208
295.456
295.727
296.011
296.303
296.61
296.943
297.314
297.732
298.202
298.722
299.278
299.852
300.432
301.027
301.685
302.589
304.107
306.378
288.91
290.244
291.166
291.768
292.266
292.752
293.19
293.548
293.829
294.049
294.228
294.384
294.529
294.674
294.828
295
295.2
295.432
295.698
295.991
296.3
296.621
296.971
297.358
297.788
298.265
298.782
299.329
299.89
300.459
301.048
301.706
302.609
304.121
306.382
288.918
290.269
291.2
291.811
292.326
292.829
293.277
293.638
293.916
294.132
294.307
294.457
294.596
294.732
294.874
295.028
295.203
295.411
295.655
295.935
296.247
296.586
296.95
297.347
297.784
298.262
298.776
299.314
299.867
300.432
301.02
301.678
302.585
304.099
306.371
288.928
290.301
291.241
291.863
292.394
292.917
293.374
293.736
294.011
294.222
294.392
294.539
294.675
294.807
294.942
295.084
295.24
295.422
295.644
295.901
296.19
296.511
296.864
297.254
297.685
298.158
298.671
299.213
299.776
300.354
300.952
301.616
302.527
304.055
306.35
288.943
290.342
291.29
291.921
292.47
293.009
293.476
293.838
294.108
294.315
294.482
294.627
294.763
294.897
295.034
295.176
295.326
295.491
295.68
295.909
296.186
296.494
296.837
297.218
297.645
298.118
298.636
299.188
299.76
300.344
300.944
301.609
302.523
304.054
306.351
288.961
290.385
291.339
291.979
292.542
293.096
293.57
293.932
294.199
294.402
294.565
294.71
294.847
294.985
295.131
295.286
295.448
295.618
295.8
296.003
296.235
296.512
296.84
297.219
297.645
298.119
298.638
299.191
299.764
300.347
300.946
301.611
302.527
304.067
306.363
288.979
290.427
291.387
292.033
292.607
293.173
293.653
294.016
294.28
294.478
294.639
294.78
294.917
295.06
295.217
295.391
295.578
295.769
295.963
296.167
296.39
296.643
296.937
297.286
297.7
298.176
298.703
299.263
299.835
300.409
300.999
301.662
302.587
304.128
306.393
288.995
290.464
291.43
292.08
292.66
293.233
293.718
294.083
294.346
294.541
294.697
294.834
294.968
295.109
295.271
295.464
295.679
295.9
296.12
296.342
296.576
296.832
297.126
297.471
297.876
298.343
298.86
299.406
299.96
300.519
301.098
301.755
302.676
304.203
306.424
289.008
290.493
291.466
292.119
292.7
293.275
293.765
294.135
294.4
294.594
294.746
294.877
295.002
295.134
295.287
295.479
295.708
295.956
296.205
296.452
296.704
296.973
297.272
297.616
298.014
298.468
298.967
299.492
300.031
300.581
301.155
301.811
302.73
304.245
306.438
289.017
290.514
291.496
292.149
292.726
293.299
293.796
294.175
294.446
294.64
294.79
294.916
295.033
295.152
295.289
295.465
295.691
295.95
296.222
296.493
296.763
297.045
297.352
297.697
298.09
298.532
299.017
299.532
300.066
300.613
301.185
301.839
302.753
304.257
306.438
289.023
290.53
291.521
292.174
292.745
293.314
293.815
294.204
294.484
294.683
294.833
294.956
295.066
295.174
295.296
295.452
295.66
295.921
296.209
296.502
296.794
297.091
297.407
297.756
298.148
298.586
299.065
299.574
300.1
300.641
301.207
301.855
302.761
304.257
306.437
289.028
290.542
291.544
292.197
292.76
293.323
293.823
294.22
294.509
294.716
294.87
294.99
295.095
295.195
295.304
295.435
295.616
295.866
296.172
296.492
296.806
297.122
297.452
297.806
298.198
298.63
299.099
299.595
300.109
300.641
301.205
301.849
302.75
304.24
306.428
289.031
290.554
291.57
292.226
292.783
293.339
293.836
294.233
294.53
294.744
294.901
295.023
295.125
295.219
295.312
295.419
295.563
295.777
296.073
296.423
296.782
297.119
297.456