/*--------------------------------*- C++ -*----------------------------------*\
| =========                 |                                                 |
| \\      /  F ield         | OpenFOAM: The Open Source CFD Toolbox           |
|  \\    /   O peration     | Version:  2.0.x                                 |
|   \\  /    A nd           | Web:      www.OpenFOAM.org                      |
|    \\/     M anipulation  |                                                 |
\*---------------------------------------------------------------------------*/
FoamFile
{
    version     2.0;
    format      ascii;
    class       volScalarField;
    location    "1000";
    object      T;
}
// * * * * * * * * * * * * * * * * * * * * * * * * * * * * * * * * * * * * * //

dimensions      [0 0 0 1 0 0 0];

internalField   nonuniform List<scalar> 
78750
(
288.77
289.57
289.913
290.029
290.065
290.111
290.181
290.264
290.349
290.429
290.501
290.564
290.621
290.674
290.722
290.766
290.806
290.842
290.874
290.902
290.927
290.948
290.966
290.981
290.991
290.999
291
291.001
291
291
291.001
291.011
291.17
292.895
300.483
288.51
289.019
289.258
289.375
289.508
289.681
289.873
290.062
290.233
290.387
290.529
290.663
290.789
290.905
291.011
291.106
291.193
291.271
291.339
291.398
291.448
291.487
291.516
291.536
291.548
291.549
291.546
291.522
291.485
291.428
291.349
291.34
291.564
293.697
300.922
288.323
288.638
288.915
289.209
289.515
289.842
290.164
290.431
290.642
290.824
290.988
291.132
291.259
291.371
291.471
291.56
291.637
291.702
291.756
291.799
291.831
291.852
291.857
291.856
291.849
291.831
291.806
291.774
291.729
291.67
291.612
291.665
292.389
294.978
301.498
288.399
288.884
289.358
289.819
290.227
290.534
290.749
290.926
291.081
291.211
291.322
291.423
291.517
291.606
291.689
291.765
291.834
291.895
291.947
291.989
292.019
292.032
292.032
292.021
291.996
291.962
291.922
291.877
291.831
291.8
291.834
292.193
293.434
296.249
302.371
288.455
289.053
289.594
290.032
290.352
290.591
290.788
290.96
291.117
291.262
291.399
291.525
291.642
291.749
291.843
291.923
291.988
292.039
292.072
292.088
292.09
292.086
292.073
292.054
292.03
291.999
291.963
291.92
291.877
291.863
291.957
292.557
294.101
297.076
303.016
288.514
289.199
289.772
290.203
290.508
290.735
290.92
291.082
291.227
291.359
291.481
291.594
291.698
291.794
291.88
291.953
292.013
292.058
292.085
292.096
292.092
292.074
292.05
292.026
292.003
291.978
291.953
291.931
291.933
292.005
292.334
293.261
294.974
297.916
303.647
288.526
289.226
289.802
290.229
290.529
290.754
290.94
291.106
291.26
291.404
291.541
291.672
291.793
291.899
291.987
292.057
292.107
292.14
292.155
292.154
292.139
292.11
292.074
292.04
292.008
291.982
291.963
291.967
292.024
292.22
292.755
293.923
295.687
298.506
304.014
288.557
289.317
289.933
290.369
290.664
290.884
291.071
291.242
291.402
291.554
291.699
291.835
291.956
292.056
292.133
292.189
292.223
292.24
292.242
292.232
292.208
292.173
292.134
292.097
292.066
292.048
292.054
292.101
292.236
292.565
293.291
294.625
296.382
299.065
304.322
288.59
289.405
290.056
290.511
290.819
291.051
291.251
291.433
291.607
291.776
291.936
292.08
292.202
292.297
292.363
292.401
292.413
292.407
292.388
292.356
292.314
292.266
292.22
292.181
292.156
292.155
292.188
292.288
292.51
292.967
293.844
295.265
296.995
299.568
304.569
288.622
289.486
290.163
290.627
290.942
291.185
291.397
291.592
291.778
291.954
292.117
292.262
292.384
292.478
292.54
292.573
292.58
292.566
292.536
292.491
292.434
292.374
292.318
292.274
292.252
292.263
292.325
292.47
292.763
293.321
294.301
295.764
297.475
299.985
304.769
288.645
289.534
290.212
290.666
290.974
291.214
291.425
291.62
291.803
291.974
292.133
292.278
292.405
292.512
292.595
292.646
292.669
292.667
292.644
292.603
292.547
292.483
292.421
292.375
292.356
292.377
292.458
292.635
292.974
293.592
294.629
296.114
297.816
300.286
304.91
288.655
289.547
290.22
290.67
290.976
291.216
291.428
291.623
291.805
291.977
292.135
292.279
292.406
292.515
292.605
292.674
292.715
292.73
292.723
292.695
292.648
292.589
292.529
292.482
292.465
292.493
292.592
292.798
293.179
293.847
294.926
296.423
298.114
300.546
305.026
288.657
289.547
290.217
290.665
290.971
291.212
291.424
291.619
291.801
291.972
292.13
292.273
292.401
292.512
292.604
292.68
292.741
292.777
292.788
292.777
292.746
292.699
292.644
292.596
292.576
292.603
292.71
292.933
293.343
294.047
295.159
296.668
298.351
300.75
305.112
288.649
289.524
290.181
290.623
290.927
291.168
291.379
291.573
291.753
291.921
292.077
292.222
292.355
292.475
292.581
292.671
292.742
292.798
292.835
292.847
292.837
292.807
292.763
292.72
292.695
292.716
292.818
293.047
293.474
294.203
295.34
296.857
298.533
300.906
305.173
288.636
289.489
290.133
290.568
290.868
291.105
291.311
291.5
291.675
291.84
291.997
292.144
292.284
292.413
292.531
292.636
292.726
292.798
292.856
292.891
292.904
292.896
292.869
292.836
292.812
292.826
292.918
293.14
293.566
294.305
295.459
296.988
298.663
301.016
305.215
288.632
289.482
290.124
290.559
290.858
291.093
291.297
291.484
291.656
291.818
291.969
292.111
292.246
292.374
292.494
292.605
292.706
292.794
292.866
292.919
292.953
292.966
292.96
292.941
292.927
292.942
293.03
293.247
293.675
294.425
295.597
297.136
298.808
301.142
305.267
288.628
289.473
290.115
290.554
290.856
291.092
291.296
291.483
291.656
291.818
291.969
292.111
292.243
292.368
292.485
292.594
292.696
292.788
292.869
292.936
292.987
293.019
293.033
293.033
293.033
293.053
293.142
293.358
293.788
294.548
295.733
297.278
298.945
301.258
305.314
288.623
289.461
290.102
290.543
290.848
291.086
291.292
291.48
291.653
291.816
291.968
292.111
292.245
292.371
292.487
292.596
292.698
292.792
292.878
292.953
293.016
293.063
293.094
293.112
293.126
293.158
293.248
293.462
293.893
294.658
295.853
297.402
299.066
301.364
305.358
288.622
289.46
290.102
290.545
290.85
291.089
291.297
291.486
291.662
291.828
291.983
292.128
292.264
292.39
292.507
292.616
292.716
292.81
292.896
292.974
293.042
293.1
293.145
293.178
293.207
293.249
293.342
293.552
293.976
294.738
295.936
297.489
299.151
301.435
305.384
288.623
289.465
290.114
290.562
290.872
291.114
291.324
291.516
291.695
291.863
292.02
292.167
292.304
292.431
292.548
292.656
292.756
292.848
292.932
293.01
293.08
293.142
293.194
293.239
293.281
293.334
293.43
293.635
294.05
294.806
296.006
297.566
299.228
301.5
305.411
288.627
289.479
290.137
290.591
290.906
291.152
291.366
291.561
291.743
291.914
292.074
292.223
292.362
292.49
292.609
292.717
292.816
292.907
292.99
293.066
293.136
293.2
293.257
293.31
293.362
293.426
293.531
293.739
294.15
294.901
296.102
297.666
299.325
301.583
305.448
288.632
289.493
290.158
290.617
290.936
291.186
291.404
291.603
291.789
291.963
292.128
292.281
292.423
292.555
292.675
292.785
292.885
292.976
293.058
293.134
293.203
293.267
293.327
293.385
293.446
293.524
293.648
293.877
294.309
295.077
296.29
297.845
299.486
301.717
305.505
288.639
289.511
290.184
290.647
290.968
291.221
291.442
291.645
291.835
292.014
292.182
292.339
292.485
292.62
292.744
292.856
292.957
293.049
293.132
293.208
293.277
293.342
293.403
293.463
293.53
293.618
293.761
294.018
294.484
295.283
296.506
298.038
299.653
301.854
305.561
288.646
289.53
290.21
290.677
291.001
291.256
291.48
291.686
291.879
292.061
292.233
292.394
292.543
292.681
292.808
292.923
293.026
293.12
293.204
293.281
293.352
293.417
293.479
293.54
293.608
293.697
293.84
294.097
294.568
295.37
296.59
298.113
299.715
301.898
305.576
288.652
289.546
290.234
290.704
291.03
291.287
291.514
291.723
291.918
292.104
292.279
292.443
292.596
292.738
292.867
292.985
293.091
293.188
293.275
293.354
293.427
293.494
293.559
293.623
293.693
293.782
293.917
294.162
294.619
295.411
296.628
298.156
299.756
301.924
305.582
288.659
289.567
290.263
290.735
291.062
291.321
291.55
291.761
291.959
292.147
292.325
292.492
292.648
292.792
292.924
293.044
293.154
293.253
293.342
293.424
293.499
293.568
293.636
293.705
293.781
293.875
294.014
294.254
294.702
295.487
296.706
298.237
299.831
301.981
305.605
288.667
289.589
290.294
290.77
291.099
291.361
291.593
291.807
292.008
292.2
292.38
292.55
292.708
292.854
292.988
293.112
293.224
293.325
293.416
293.5
293.576
293.648
293.719
293.792
293.875
293.979
294.13
294.384
294.844
295.641
296.868
298.39
299.966
302.092
305.651
288.675
289.608
290.32
290.799
291.131
291.396
291.631
291.849
292.055
292.249
292.434
292.606
292.767
292.916
293.054
293.179
293.294
293.399
293.494
293.58
293.659
293.732
293.804
293.881
293.97
294.086
294.256
294.536
295.025
295.848
297.082
298.577
300.123
302.218
305.703
288.682
289.629
290.347
290.828
291.16
291.427
291.665
291.886
292.096
292.294
292.481
292.658
292.822
292.973
293.113
293.241
293.359
293.467
293.566
293.657
293.74
293.818
293.892
293.971
294.065
294.189
294.372
294.674
295.189
296.032
297.269
298.738
300.258
302.325
305.746
288.69
289.648
290.374
290.858
291.192
291.462
291.703
291.927
292.139
292.341
292.531
292.709
292.874
293.027
293.167
293.297
293.417
293.528
293.631
293.727
293.816
293.898
293.978
294.06
294.157
294.285
294.479
294.799
295.337
296.198
297.434
298.878
300.372
302.412
305.777
288.696
289.665
290.399
290.886
291.224
291.498
291.743
291.973
292.19
292.395
292.588
292.768
292.934
293.086
293.226
293.355
293.475
293.587
293.692
293.792
293.885
293.973
294.058
294.144
294.241
294.365
294.553
294.872
295.417
296.283
297.514
298.943
300.415
302.43
305.778
288.703
289.682
290.422
290.911
291.253
291.531
291.781
292.016
292.239
292.45
292.648
292.831
292.999
293.152
293.292
293.42
293.539
293.65
293.756
293.858
293.955
294.047
294.138
294.23
294.33
294.449
294.618
294.907
295.424
296.287
297.518
298.949
300.42
302.43
305.775
288.709
289.698
290.443
290.934
291.277
291.559
291.814
292.054
292.283
292.499
292.703
292.891
293.062
293.218
293.359
293.487
293.605
293.716
293.823
293.925
294.025
294.122
294.22
294.321
294.432
294.561
294.731
295.003
295.49
296.321
297.561
299.02
300.495
302.477
305.793
288.715
289.713
290.462
290.955
291.3
291.584
291.843
292.088
292.321
292.543
292.751
292.943
293.119
293.278
293.421
293.551
293.671
293.784
293.891
293.996
294.099
294.2
294.305
294.417
294.546
294.703
294.91
295.221
295.741
296.601
297.85
299.259
300.696
302.659
305.873
288.72
289.725
290.476
290.971
291.318
291.605
291.868
292.116
292.354
292.58
292.792
292.989
293.169
293.331
293.477
293.609
293.731
293.845
293.955
294.062
294.168
294.273
294.383
294.505
294.653
294.845
295.11
295.498
296.084
296.972
298.195
299.529
300.917
302.857
305.957
288.724
289.734
290.488
290.984
291.333
291.623
291.889
292.141
292.383
292.613
292.829
293.03
293.213
293.378
293.527
293.662
293.786
293.902
294.014
294.123
294.232
294.34
294.453
294.578
294.729
294.93
295.223
295.667
296.325
297.242
298.435
299.707
301.051
302.946
305.979
288.726
289.74
290.496
290.994
291.344
291.637
291.906
292.161
292.406
292.64
292.86
293.065
293.252
293.421
293.573
293.71
293.836
293.954
294.067
294.178
294.29
294.402
294.517
294.641
294.785
294.97
295.246
295.681
296.344
297.3
298.498
299.74
301.063
302.928
305.968
288.728
289.746
290.504
291.003
291.355
291.65
291.921
292.179
292.427
292.664
292.887
293.095
293.287
293.46
293.616
293.756
293.885
294.004
294.119
294.232
294.345
294.46
294.58
294.709
294.854
295.03
295.278
295.685
296.343
297.285
298.487
299.741
301.06
302.919
305.957
288.73
289.751
290.511
291.01
291.364
291.66
291.934
292.194
292.444
292.683
292.909
293.121
293.316
293.495
293.656
293.801
293.933
294.055
294.172
294.288
294.403
294.522
294.647
294.786
294.946
295.139
295.395
295.766
296.356
297.287
298.491
299.75
301.065
302.925
305.965
288.732
289.756
290.517
291.016
291.371
291.669
291.944
292.206
292.457
292.698
292.926
293.14
293.34
293.523
293.689
293.839
293.976
294.103
294.223
294.342
294.46
294.581
294.71
294.855
295.028
295.248
295.549
295.978
296.601
297.493
298.679
299.924
301.209
303.041
306.013
288.733
289.758
290.519
291.02
291.376
291.675
291.952
292.215
292.467
292.708
292.937
293.153
293.356
293.544
293.716
293.872
294.013
294.145
294.269
294.391
294.512
294.636
294.767
294.91
295.078
295.293
295.598
296.052
296.715
297.645
298.824
300.035
301.292
303.09
306.025
288.733
289.759
290.521
291.022
291.379
291.68
291.957
292.221
292.473
292.713
292.943
293.162
293.368
293.56
293.738
293.9
294.048
294.185
294.314
294.44
294.567
294.696
294.832
294.98
295.145
295.345
295.623
296.057
296.72
297.655
298.836
300.046
301.3
303.095
306.026
288.734
289.76
290.521
291.022
291.379
291.681
291.958
292.222
292.474
292.714
292.944
293.163
293.372
293.57
293.754
293.923
294.078
294.222
294.357
294.489
294.622
294.76
294.908
295.072
295.256
295.477
295.763
296.169
296.797
297.737
298.94
300.141
301.382
303.168
306.056
288.735
289.76
290.521
291.022
291.38
291.681
291.958
292.222
292.474
292.714
292.944
293.163
293.372
293.572
293.761
293.94
294.102
294.253
294.394
294.531
294.67
294.815
294.973
295.154
295.37
295.64
295.988
296.456
297.121
298.058
299.219
300.354
301.558
303.331
306.128
288.734
289.759
290.519
291.02
291.378
291.68
291.958
292.221
292.472
292.712
292.942
293.161
293.371
293.571
293.762
293.943
294.116
294.275
294.423
294.565
294.707
294.854
295.015
295.202
295.433
295.734
296.134
296.668
297.385
298.329
299.446
300.522
301.685
303.428
306.161
288.732
289.754
290.512
291.012
291.37
291.671
291.948
292.209
292.459
292.697
292.926
293.146
293.358
293.562
293.757
293.942
294.118
294.287
294.445
294.594
294.74
294.889
295.049
295.232
295.456
295.754
296.163
296.722
297.471
298.431
299.534
300.586
301.726
303.445
306.161
288.73
289.749
290.506
291.005
291.363
291.663
291.938
292.197
292.445
292.681
292.908
293.126
293.336
293.541
293.74
293.931
294.115
294.289
294.457
294.617
294.771
294.927
295.091
295.275
295.494
295.777
296.168
296.725
297.476
298.438
299.542
300.593
301.73
303.446
306.16
288.727
289.741
290.497
290.997
291.354
291.654
291.928
292.186
292.431
292.665
292.889
293.104
293.313
293.517
293.717
293.912
294.102
294.285
294.46
294.631
294.796
294.961
295.137
295.333
295.569
295.868
296.262
296.795
297.535
298.505
299.61
300.649
301.774
303.482
306.175
288.724
289.732
290.487
290.987
291.344
291.643
291.916
292.172
292.416
292.648
292.87
293.083
293.289
293.491
293.69
293.887
294.08
294.269
294.453
294.631
294.805
294.979
295.16
295.362
295.61
295.936
296.37
296.947
297.708
298.669
299.744
300.75
301.849
303.531
306.19
288.72
289.724
290.478
290.979
291.336
291.634
291.906
292.161
292.402
292.632
292.852
293.062
293.266
293.466
293.663
293.858
294.053
294.247
294.437
294.623
294.804
294.982
295.162
295.357
295.597
295.919
296.36
296.953
297.73
298.695
299.758
300.752
301.84
303.517
306.183
288.716
289.717
290.473
290.975
291.333
291.631
291.902
292.156
292.397
292.625
292.842
293.05
293.251
293.448
293.642
293.836
294.031
294.227
294.422
294.615
294.806
294.993
295.174
295.36
295.578
295.864
296.26
296.827
297.601
298.574
299.652
300.666
301.757
303.415
306.129
288.715
289.716
290.473
290.978
291.336
291.635
291.906
292.159
292.399
292.626
292.842
293.049
293.248
293.443
293.635
293.827
294.021
294.218
294.417
294.62
294.822
295.021
295.215
295.406
295.612
295.868
296.23
296.75
297.495
298.472
299.588
300.643
301.749
303.398
306.123
288.715
289.722
290.484
290.991
291.352
291.651
291.924
292.179
292.42
292.648
292.863
293.068
293.266
293.459
293.65
293.842
294.037
294.235
294.437
294.644
294.855
295.069
295.284
295.501
295.734
295.997
296.32
296.784
297.497
298.475
299.603
300.663
301.771
303.433
306.142
288.719
289.73
290.495
291.005
291.367
291.669
291.944
292.202
292.445
292.675
292.893
293.101
293.301
293.496
293.69
293.886
294.084
294.286
294.491
294.699
294.913
295.135
295.368
295.621
295.91
296.247
296.648
297.164
297.87
298.828
299.92
300.909
301.981
303.632
306.23
288.722
289.74
290.509
291.021
291.385
291.689
291.966
292.227
292.473
292.705
292.925
293.134
293.336
293.534
293.731
293.932
294.137
294.346
294.556
294.767
294.98
295.199
295.437
295.712
296.044
296.45
296.946
297.555
298.316
299.242
300.23
301.139
302.17
303.791
306.297
288.726
289.751
290.525
291.038
291.404
291.71
291.99
292.253
292.501
292.735
292.956
293.167
293.369
293.568
293.768
293.973
294.185
294.403
294.621
294.834
295.04
295.243
295.46
295.717
296.048
296.477
297.018
297.681
298.475
299.387
300.332
301.208
302.216
303.816
306.299
288.73
289.764
290.544
291.058
291.426
291.735
292.018
292.284
292.536
292.773
292.997
293.209
293.412
293.612
293.814
294.023
294.242
294.47
294.699
294.917
295.116
295.299
295.485
295.703
295.977
296.349
296.87
297.553
298.376
299.298
300.229
301.097
302.102
303.709
306.25
288.734
289.78
290.566
291.081
291.45
291.762
292.048
292.318
292.573
292.813
293.04
293.255
293.462
293.665
293.871
294.088
294.319
294.565
294.816
295.053
295.259
295.436
295.597
295.763
295.974
296.268
296.678
297.252
298.025
298.952
299.936
300.87
301.908
303.521
306.164
288.743
289.804
290.593
291.108
291.478
291.793
292.083
292.356
292.615
292.86
293.09
293.308
293.518
293.726
293.938
294.165
294.414
294.689
294.976
295.253
295.493
295.695
295.864
296.008
296.147
296.332
296.671
297.204
297.956
298.899
299.91
300.849
301.889
303.517
306.165
288.756
289.832
290.624
291.137
291.507
291.824
292.118
292.396
292.659
292.908
293.142
293.364
293.578
293.79
294.009
294.245
294.51
294.813
295.148
295.482
295.786
296.051
296.272
296.451
296.601
296.752
296.96
297.36
298.042
298.968
299.957
300.872
301.916
303.573
306.214
288.767
289.855
290.649
291.162
291.533
291.852
292.149
292.43
292.698
292.95
293.188
293.414
293.632
293.848
294.071
294.31
294.579
294.893
295.256
295.645
296.026
296.378
296.688
296.954
297.191
297.431
297.728
298.165
298.812
299.629
300.47
301.277
302.266
303.886
306.348
288.776
289.872
290.668
291.18
291.55
291.871
292.17
292.454
292.724
292.979
293.22
293.45
293.672
293.893
294.119
294.359
294.623
294.927
295.284
295.684
296.113
296.544
296.949
297.318
297.666
298.02
298.424
298.925
299.552
300.259
300.966
301.683
302.619
304.17
306.453
288.781
289.885
290.684
291.197
291.569
291.891
292.192
292.478
292.749
293.005
293.247
293.478
293.702
293.927
294.158
294.4
294.655
294.931
295.242
295.615
296.053
296.526
296.986
297.428
297.862
298.307
298.786
299.325
299.93
300.571
301.216
301.893
302.796
304.29
306.488
288.784
289.891
290.693
291.207
291.58
291.906
292.209
292.498
292.771
293.029
293.272
293.503
293.728
293.954
294.188
294.433
294.684
294.937
295.203
295.501
295.865
296.309
296.817
297.347
297.857
298.343
298.859
299.416
300.016
300.641
301.27
301.933
302.82
304.295
306.483
288.784
289.897
290.701
291.215
291.589
291.915
292.22
292.509
292.784
293.043
293.287
293.519
293.744
293.972
294.211
294.463
294.721
294.97
295.202
295.435
295.695
296.014
296.418
296.914
297.49
298.113
298.74
299.372
300.001
300.632
301.261
301.925
302.81
304.284
306.472
288.787
289.907
290.715
291.23
291.605
291.933
292.239
292.53
292.805
293.064
293.308
293.539
293.765
293.994
294.239
294.503
294.78
295.044
295.275
295.476
295.673
295.893
296.159
296.5
296.938
297.477
298.097
298.769
299.469
300.159
300.838
301.553
302.48
303.998
306.352
288.79
289.919
290.729
291.245
291.621
291.951
292.26
292.552
292.829
293.09
293.335
293.566
293.792
294.022
294.273
294.553
294.86
295.161
295.42
295.628
295.797
295.955
296.142
296.385
296.698
297.098
297.612
298.229
298.925
299.666
300.434
301.215
302.176
303.744
306.251
288.798
289.937
290.747
291.261
291.638
291.969
292.279
292.574
292.853
293.115
293.361
293.592
293.815
294.042
294.293
294.587
294.934
295.299
295.616
295.869
296.064
296.214
296.336
296.472
296.692
297.039
297.504
298.095
298.802
299.585
300.376
301.156
302.121
303.72
306.245
288.807
289.954
290.761
291.272
291.648
291.979
292.288
292.583
292.862
293.124
293.37
293.601
293.824
294.05
294.299
294.599
294.969
295.391
295.802
296.14
296.402
296.597
296.74
296.853
296.97
297.164
297.528
298.102
298.813
299.598
300.382
301.159
302.128
303.732
306.266
288.814
289.966
290.773
291.282
291.658
291.989
292.3
292.596
292.876
293.139
293.383
293.611
293.828
294.044
294.279
294.564
294.938
295.409
295.907
296.354
296.721
297.006
297.223
297.4
297.573
297.792
298.128
298.624
299.282
299.998
300.697
301.413
302.359
303.955
306.368
288.817
289.97
290.776
291.286
291.661
291.992
292.303
292.6
292.882
293.145
293.389
293.615
293.825
294.028
294.24
294.487
294.813
295.258
295.798
296.346
296.833
297.236
297.566
297.853
298.133
298.447
298.842
299.347
299.941
300.559
301.169
301.821
302.718
304.233
306.47
288.816
289.963
290.769
291.28
291.655
291.984
292.294
292.589
292.87
293.133
293.378
293.605
293.815
294.012
294.205
294.411
294.664
295.017
295.499
296.082
296.696
297.224
297.639
298.017
298.39
298.786
299.229
299.734
300.284
300.844
301.411
302.038
302.902
304.35
306.502
288.812
289.952
290.762
291.276
291.651
291.98
292.29
292.585
292.865
293.128
293.372
293.597
293.806
294
294.183
294.362
294.552
294.793
295.127
295.592
296.18
296.808
297.411
297.942
298.393
298.825
299.29
299.796
300.332
300.884
301.45
302.069
302.914
304.344
306.489
288.803
289.934
290.749
291.268
291.645
291.976
292.286
292.582
292.862
293.125
293.369
293.595
293.804
293.997
294.179
294.351
294.52
294.695
294.901
295.181
295.575
296.08
296.667
297.297
297.947
298.571
299.161
299.737
300.306
300.871
301.442
302.061
302.902
304.31
306.458
288.794
289.921
290.74
291.264
291.644
291.974
292.285
292.58
292.861
293.123
293.368
293.594
293.804
293.999
294.181
294.353
294.517
294.677
294.841
295.018
295.237
295.534
295.941
296.461
297.075
297.748
298.446
299.147
299.84
300.518
301.174
301.846
302.707
304.132
306.386
288.787
289.912
290.737
291.263
291.644
291.977
292.289
292.586
292.867
293.13
293.376
293.604
293.816
294.013
294.198
294.372
294.539
294.699
294.856
295.009
295.166
295.348
295.584
295.91
296.351
296.914
297.577
298.308
299.074
299.84
300.579
301.321
302.235
303.731
306.22
288.784
289.909
290.737
291.267
291.651
291.986
292.3
292.599
292.881
293.147
293.394
293.625
293.839
294.04
294.228
294.407
294.577
294.743
294.907
295.062
295.209
295.361
295.535
295.748
296.03
296.42
296.945
297.606
298.375
299.208
300.061
300.907
301.881
303.425
306.092
288.783
289.913
290.744
291.275
291.66
291.997
292.313
292.614
292.898
293.166
293.416
293.649
293.867
294.072
294.266
294.45
294.628
294.803
294.977
295.146
295.308
295.467
295.626
295.796
296.009
296.303
296.72
297.301
298.056
298.952
299.902
300.797
301.79
303.369
306.081
288.787
289.924
290.756
291.286
291.673
292.011
292.329
292.632
292.919
293.189
293.442
293.678
293.899
294.108
294.307
294.499
294.686
294.873
295.063
295.253
295.441
295.633
295.823
296.007
296.189
296.408
296.741
297.29
298.047
298.963
299.925
300.806
301.799
303.409
306.106
288.794
289.938
290.769
291.298
291.684
292.024
292.344
292.649
292.938
293.209
293.463
293.701
293.925
294.137
294.341
294.54
294.736
294.936
295.143
295.36
295.587
295.826
296.071
296.314
296.556
296.821
297.17
297.682
298.44
299.364
300.256
301.068
302.033
303.633
306.212
288.799
289.949
290.78
291.308
291.694
292.035
292.357
292.663
292.953
293.225
293.479
293.717
293.942
294.155
294.361
294.562
294.762
294.968
295.187
295.426
295.688
295.977
296.287
296.611
296.948
297.317
297.76
298.339
299.08
299.903
300.681
301.42
302.348
303.902
306.322
288.803
289.957
290.789
291.318
291.705
292.046
292.369
292.677
292.967
293.239
293.493
293.73
293.953
294.166
294.37
294.57
294.77
294.975
295.195
295.44
295.717
296.033
296.388
296.779
297.203
297.669
298.198
298.82
299.534
300.274
300.974
301.667
302.57
304.086
306.397
288.806
289.963
290.798
291.328
291.716
292.059
292.383
292.692
292.983
293.255
293.507
293.743
293.965
294.175
294.378
294.575
294.771
294.97
295.181
295.416
295.687
296.006
296.377
296.795
297.26
297.777
298.354
298.999
299.697
300.401
301.069
301.746
302.636
304.129
306.405
288.807
289.969
290.808
291.34
291.73
292.075
292.401
292.712
293.003
293.275
293.526
293.761
293.981
294.191
294.391
294.586
294.778
294.971
295.171
295.389
295.637
295.93
296.282
296.701
297.186
297.731
298.334
298.996
299.698
300.398
301.065
301.742
302.628
304.112
306.392
288.81
289.978
290.822
291.356
291.748
292.095
292.424
292.736
293.028
293.3
293.551
293.785
294.005
294.214
294.414
294.608
294.798
294.988
295.183
295.39
295.625
295.9
296.227
296.619
297.085
297.628
298.245
298.927
299.647
300.361
301.041
301.728
302.617
304.101
306.386
288.813
289.988
290.837
291.374
291.768
292.118
292.449
292.762
293.055
293.326
293.576
293.81
294.03
294.239
294.439
294.633
294.823
295.011
295.202
295.405
295.634
295.901
296.22
296.604
297.063
297.603
298.224
298.912
299.638
300.356
301.039
301.727
302.618
304.103
306.387
288.816
289.998
290.854
291.394
291.79
292.143
292.477
292.792
293.084
293.354
293.603
293.835
294.054
294.262
294.464
294.659
294.85
295.036
295.225
295.424
295.648
295.907
296.218
296.594
297.048
297.587
298.208
298.897
299.623
300.342
301.028
301.72
302.614
304.1
306.386
288.82
290.012
290.874
291.417
291.817
292.173
292.51
292.826
293.119
293.388
293.634
293.864
294.081
294.29
294.493
294.691
294.885
295.073
295.261
295.457
295.673
295.92
296.217
296.579
297.02
297.55
298.169
298.86
299.591
300.316
301.007
301.703
302.598
304.085
306.379
288.826
290.029
290.897
291.444
291.847
292.208
292.548
292.866
293.159
293.426
293.67
293.897
294.113
294.322
294.527
294.729
294.928
295.122
295.313
295.511
295.722
295.958
296.234
296.579
297.01
297.534
298.151
298.846
299.581
300.309
301.002
301.699
302.596
304.084
306.378
288.832
290.05
290.924
291.475
291.882
292.247
292.591
292.911
293.204
293.469
293.711
293.935
294.149
294.359
294.566
294.773
294.979
295.182
295.383
295.588
295.804
296.036
296.301
296.62
297.022
297.535
298.151
298.846
299.583
300.311
301.004
301.701
302.599
304.093
306.384
288.841
290.073
290.954
291.508
291.919
292.289
292.637
292.96
293.254
293.517
293.756
293.977
294.189
294.398
294.609
294.822
295.039
295.255
295.47
295.691
295.919
296.159
296.425
296.736
297.12
297.6
298.195
298.887
299.626
300.352
301.038
301.731
302.635
304.132
306.403
288.851
290.099
290.984
291.542
291.957
292.332
292.685
293.011
293.305
293.567
293.802
294.019
294.228
294.436
294.65
294.872
295.101
295.335
295.573
295.818
296.07
296.333
296.618
296.944
297.337
297.824
298.417
299.098
299.815
300.507
301.162
301.839
302.735
304.218
306.44
288.862
290.122
291.014
291.574
291.994
292.375
292.732
293.063
293.358
293.617
293.848
294.06
294.263
294.467
294.681
294.908
295.149
295.403
295.672
295.951
296.239
296.538
296.859
297.218
297.638
298.14
298.73
299.384
300.052
300.694
301.317
301.98
302.872
304.337
306.492
288.87
290.141
291.038
291.603
292.027
292.413
292.777
293.111
293.408
293.666
293.892
294.097
294.292
294.488
294.696
294.92
295.166
295.439
295.736
296.048
296.373
296.712
297.071
297.465
297.909
298.417
298.989
299.602
300.221
300.825
301.425
302.079
302.968
304.419
306.525
288.876
290.155
291.058
291.628
292.056
292.447
292.817
293.156
293.455
293.713
293.935
294.133
294.318
294.502
294.696
294.908
295.147
295.422
295.73
296.061
296.411
296.781
297.174
297.596
298.058
298.565
299.118
299.702
300.293
300.875
301.461
302.105
302.985
304.428
306.526
288.879
290.162
291.073
291.648
292.081
292.476
292.852
293.197
293.499
293.757
293.977
294.169
294.346
294.517
294.693
294.882
295.097
295.349
295.645
295.982
296.352
296.748
297.167
297.607
298.08
298.592
299.14
299.713
300.295
300.874
301.458
302.099
302.974
304.41
306.514
288.88
290.166
291.086
291.667
292.103
292.503
292.884
293.233
293.54
293.801
294.021
294.21
294.38
294.54
294.699
294.866
295.048
295.262
295.517
295.822
296.179
296.583
297.027
297.507
298.014
298.548
299.108
299.689
300.277
300.861
301.448
302.088
302.957
304.385
306.498
288.88
290.171
291.099
291.687
292.127
292.531
292.916
293.27
293.58
293.844
294.066
294.255
294.422
294.576
294.724
294.874
295.032
295.209
295.418
295.673
295.981
296.35
296.778
297.26
297.786
298.348
298.936
299.539
300.143
300.737
301.334
301.986
302.868
304.315
306.469
288.881
290.181
291.119
291.713
292.157
292.565
292.953
293.31
293.623
293.89
294.114
294.304
294.471
294.622
294.766
294.907
295.05
295.203
295.379
295.586
295.84
296.15
296.526
296.97
297.479
298.041
298.643
299.265
299.885
300.498
301.115
301.783
302.677
304.153
306.403
288.885
290.198
291.148
291.748
292.197
292.609
293.001
293.359
293.674
293.942
294.167
294.359
294.527
294.679
294.822
294.958
295.093
295.233
295.389
295.571
295.784
296.042
296.357
296.744
297.206
297.74
298.333
298.962
299.607
300.26
300.915
301.603
302.502
303.998
306.334
288.892
290.225
291.189
291.797
292.252
292.669
293.065
293.425
293.738
294.005
294.229
294.421
294.59
294.744
294.889
295.029
295.166
295.307
295.458
295.619
295.803
296.029
296.306
296.648
297.069
297.572
298.152
298.793
299.476
300.168
300.847
301.544
302.445
303.954
306.318
288.906
290.267
291.246
291.862
292.325
292.75
293.151
293.512
293.823
294.084
294.304
294.492
294.66
294.815
294.966
295.114
295.262
295.417
295.58
295.75
295.928
296.122
296.354
296.653
297.053
297.545
298.126
298.779
299.473
300.169
300.848
301.543
302.447
303.961
306.323
288.926
290.322
291.317
291.943
292.415
292.852
293.262
293.625
293.929
294.18
294.39
294.572
294.735
294.89
295.043
295.199
295.364
295.541
295.73
295.929
296.134
296.35
296.589
296.871
297.225
297.69
298.271
298.942
299.649
300.335
300.988
301.663
302.56
304.066
306.372
288.952
290.387
291.401
292.037
292.523
292.977
293.399
293.762
294.056
294.293
294.488
294.656
294.811
294.961
295.112
295.274
295.453
295.654
295.878
296.118
296.369
296.633
296.917
297.243
297.635
298.119
298.699
299.342
299.996
300.624
301.234
301.885
302.768
304.239
306.445
288.978
290.454
291.489
292.139
292.642
293.118
293.556
293.92
294.201
294.417
294.591
294.743
294.883
295.021
295.165
295.325
295.511
295.729
295.981
296.26
296.558
296.874
297.213
297.588
298.017
298.514
299.074
299.669
300.263
300.843
301.422
302.059
302.936
304.384
306.506
289.005
290.52
291.578
292.244
292.768
293.271
293.729
294.095
294.363
294.558
294.709
294.839
294.96
295.081
295.21
295.357
295.535
295.752
296.014
296.316