/*--------------------------------*- C++ -*----------------------------------*\
| =========                 |                                                 |
| \\      /  F ield         | OpenFOAM: The Open Source CFD Toolbox           |
|  \\    /   O peration     | Version:  2.0.x                                 |
|   \\  /    A nd           | Web:      www.OpenFOAM.org                      |
|    \\/     M anipulation  |                                                 |
\*---------------------------------------------------------------------------*/
FoamFile
{
    version     2.0;
    format      ascii;
    class       volVectorField;
    location    "1000";
    object      U;
}
// * * * * * * * * * * * * * * * * * * * * * * * * * * * * * * * * * * * * * //

dimensions      [0 1 -1 0 0 0 0];

internalField   nonuniform List<vector> 
78750
(
(-0.00290479 0.0203315 0.0245816)
(-0.0107706 0.0184909 0.0392844)
(-0.0202076 0.00503496 0.040354)
(-0.0273936 -0.006984 0.0386427)
(-0.0313892 -0.0174346 0.0377637)
(-0.0318456 -0.0269023 0.0373723)
(-0.0307368 -0.0354017 0.0373744)
(-0.0257994 -0.043507 0.036508)
(-0.0192092 -0.0500754 0.0356145)
(-0.0109624 -0.0550169 0.0348746)
(-0.00169654 -0.0581761 0.0344574)
(0.00802978 -0.059499 0.0342616)
(0.0179549 -0.0594117 0.0341862)
(0.0274357 -0.058646 0.0341936)
(0.0369373 -0.0566639 0.0343407)
(0.0458716 -0.0540315 0.0345555)
(0.0545072 -0.0539212 0.0334589)
(0.062049 -0.0524146 0.0326028)
(0.0685881 -0.0496003 0.0321339)
(0.0743563 -0.0454543 0.0320557)
(0.0785259 -0.0423681 0.0316876)
(0.082504 -0.0346994 0.032584)
(0.0841331 -0.0300283 0.0331378)
(0.0851975 -0.0257253 0.0336533)
(0.0850889 -0.0203787 0.0343895)
(0.0835343 -0.0148796 0.0352624)
(0.0808818 -0.00956966 0.0364356)
(0.0765956 -0.00393346 0.0377773)
(0.0709264 0.00197733 0.0393137)
(0.0638231 0.00890724 0.0407689)
(0.0554731 0.0145238 0.0428909)
(0.0452919 0.0202735 0.0452468)
(0.0333586 0.0258885 0.0483355)
(0.0199763 0.0330243 0.049963)
(0.00650332 0.0339333 0.0328989)
(0.000619526 0.0265137 0.016075)
(0.00153457 0.0429489 0.0273434)
(0.00137633 0.0401903 0.0299765)
(0.00176528 0.0218991 0.029532)
(0.00530046 -0.0101835 0.0269084)
(0.00824329 -0.0349844 0.0249859)
(0.0152579 -0.0620874 0.0227153)
(0.0211084 -0.0841136 0.0205421)
(0.0278909 -0.101677 0.0186256)
(0.034431 -0.114176 0.0170853)
(0.0407962 -0.121353 0.0159381)
(0.0460393 -0.123765 0.0151828)
(0.0526403 -0.121639 0.0146817)
(0.0564834 -0.119464 0.0145079)
(0.061722 -0.115136 0.0141242)
(0.0654845 -0.109643 0.0137204)
(0.0682452 -0.100446 0.0143259)
(0.071034 -0.0896758 0.0155423)
(0.0726983 -0.0791191 0.0165467)
(0.0738349 -0.0686658 0.0174267)
(0.0744087 -0.0582139 0.0183145)
(0.0742614 -0.0483869 0.0185596)
(0.0737438 -0.0382456 0.0189087)
(0.0724602 -0.0278223 0.0194273)
(0.0705632 -0.0170948 0.0202689)
(0.0676109 -0.00612568 0.0214273)
(0.0644152 0.0047377 0.0228201)
(0.0588733 0.0210948 0.0261755)
(0.0552043 0.0287591 0.028082)
(0.047718 0.0417411 0.0302538)
(0.0409776 0.0550165 0.0337645)
(0.0328031 0.0687525 0.0376645)
(0.0229891 0.0836583 0.0408107)
(0.0121818 0.0973517 0.0395171)
(0.00353946 0.0886495 0.0271184)
(-0.000119538 0.000158848 0.0111338)
(0.00238489 -0.00480555 0.0205883)
(0.00765917 -0.026778 0.0218946)
(0.0151783 -0.0583544 0.0206817)
(0.0233037 -0.0911273 0.0181997)
(0.0312559 -0.119743 0.0158122)
(0.0382336 -0.140876 0.0140225)
(0.0437054 -0.153814 0.0129453)
(0.0482741 -0.158227 0.0123383)
(0.0508711 -0.157264 0.0121604)
(0.0532115 -0.154227 0.0120481)
(0.0549231 -0.149412 0.0118435)
(0.0560623 -0.143372 0.0115479)
(0.0570551 -0.136244 0.0111151)
(0.0576546 -0.127744 0.0107484)
(0.0580134 -0.117953 0.0105496)
(0.0582242 -0.107821 0.0102833)
(0.057868 -0.0981131 0.00929446)
(0.0577976 -0.0877496 0.00818279)
(0.0573971 -0.0766553 0.00705047)
(0.0566909 -0.0648816 0.0059908)
(0.055645 -0.0524536 0.00514214)
(0.0542138 -0.0395723 0.00460422)
(0.0523736 -0.0267531 0.00439902)
(0.0503068 -0.0136994 0.00474072)
(0.0467497 0.00567717 0.0067496)
(0.0442866 0.0161511 0.00798396)
(0.0406903 0.0300656 0.00956877)
(0.036537 0.0469979 0.0122193)
(0.033096 0.0611103 0.0177483)
(0.0273205 0.0779097 0.0228562)
(0.021519 0.0965372 0.0292335)
(0.0142118 0.116347 0.0358328)
(0.00698194 0.129299 0.0358777)
(0.00187685 0.110403 0.0238954)
(-0.000140464 -0.00708979 0.00703313)
(0.0026371 -0.0404285 0.0107719)
(0.0082941 -0.081268 0.0100468)
(0.0149503 -0.118287 0.00872387)
(0.0209968 -0.144646 0.00810385)
(0.0256064 -0.159218 0.00816259)
(0.0286636 -0.165391 0.00843449)
(0.0310062 -0.166934 0.00866541)
(0.032326 -0.166388 0.00869306)
(0.0337991 -0.164285 0.00843024)
(0.0349483 -0.161162 0.00791487)
(0.0359964 -0.156742 0.00722335)
(0.0370154 -0.150933 0.00640562)
(0.037665 -0.144115 0.00538728)
(0.0380912 -0.135634 0.00429802)
(0.0388688 -0.125453 0.00324233)
(0.0390445 -0.114078 0.00206649)
(0.0391685 -0.101506 0.000809756)
(0.0389434 -0.0879212 -0.00058088)
(0.0383607 -0.0734764 -0.0021104)
(0.0374371 -0.0584037 -0.00370096)
(0.0362268 -0.0431682 -0.00518247)
(0.0347666 -0.0282517 -0.00634418)
(0.033083 -0.0125333 -0.00687673)
(0.0306648 0.00756001 -0.00613919)
(0.0293045 0.018916 -0.00530728)
(0.0269664 0.0340825 -0.00384189)
(0.0252221 0.048122 1.886e-05)
(0.0229616 0.0627212 0.00478307)
(0.0198959 0.0801269 0.0100685)
(0.0167296 0.0992051 0.0164573)
(0.0126571 0.120169 0.0234612)
(0.00782034 0.13977 0.0284705)
(0.00314562 0.148533 0.0275044)
(0.000206463 0.11692 0.0155282)
(0.000368945 -0.0210224 0.00327807)
(0.00376925 -0.0743353 0.00484905)
(0.00832679 -0.120777 0.0054413)
(0.0124397 -0.151742 0.00615045)
(0.0153582 -0.169109 0.00663735)
(0.0173804 -0.178621 0.00677181)
(0.0189377 -0.183873 0.00665887)
(0.0204568 -0.186193 0.00639319)
(0.0217293 -0.185922 0.00607109)
(0.0230962 -0.183088 0.00557254)
(0.0243217 -0.177936 0.00507309)
(0.0254251 -0.171016 0.00453721)
(0.0261988 -0.162333 0.00397541)
(0.0271132 -0.151405 0.00352847)
(0.027572 -0.139848 0.00294167)
(0.0271686 -0.127842 0.0020904)
(0.027029 -0.11452 0.00102921)
(0.0264093 -0.0999434 -0.000403547)
(0.0254733 -0.0841882 -0.00235917)
(0.0243589 -0.0677052 -0.00488514)
(0.0230392 -0.0510522 -0.00778223)
(0.0215717 -0.0346561 -0.010611)
(0.0199197 -0.0175975 -0.0129563)
(0.0182961 0.000477159 -0.0144532)
(0.0174577 0.0123815 -0.0148344)
(0.0165781 0.0263795 -0.0141198)
(0.0161769 0.0399175 -0.0116035)
(0.0150565 0.0543091 -0.00840876)
(0.0140508 0.0697729 -0.0037013)
(0.0125501 0.0870933 0.00249179)
(0.0106021 0.107239 0.00999908)
(0.00780935 0.130624 0.0177692)
(0.00459661 0.150877 0.0225242)
(0.00151753 0.157295 0.0217859)
(-0.000153629 0.116025 0.0121997)
(0.00032089 -0.0339872 0.0020944)
(0.00249605 -0.098284 0.0035238)
(0.00499205 -0.143212 0.00435977)
(0.00718388 -0.168995 0.00478444)
(0.00891313 -0.18217 0.00492094)
(0.0102952 -0.188579 0.00492856)
(0.0114343 -0.191194 0.00485829)
(0.0123713 -0.191223 0.00470479)
(0.0131036 -0.189494 0.00443657)
(0.0137792 -0.185753 0.00399719)
(0.0143355 -0.180325 0.00346012)
(0.0147854 -0.173262 0.00276337)
(0.0150817 -0.164373 0.00190071)
(0.0150648 -0.153101 0.00117238)
(0.0152126 -0.139701 0.00071788)
(0.0149302 -0.124577 0.000271346)
(0.0146019 -0.108153 -0.000291492)
(0.0139881 -0.0908559 -0.00118276)
(0.013359 -0.0731231 -0.00266564)
(0.0126434 -0.054869 -0.00496015)
(0.0119121 -0.0360989 -0.00806895)
(0.0111028 -0.0176105 -0.0116013)
(0.0103014 -0.00115022 -0.0147002)
(0.00987543 0.010238 -0.0163694)
(0.00966513 0.0220092 -0.0172059)
(0.00946141 0.0339903 -0.017067)
(0.00917618 0.0470941 -0.0159553)
(0.00895976 0.0613576 -0.0134956)
(0.00855114 0.0773216 -0.0094122)
(0.00778863 0.0958046 -0.00340945)
(0.00652422 0.117744 0.00420704)
(0.00440355 0.141918 0.0116401)
(0.00222595 0.159185 0.0155257)
(0.000349106 0.161578 0.014962)
(-0.000400805 0.111366 0.00704718)
(0.000329866 -0.0406321 0.000444653)
(0.0020927 -0.109625 0.0015401)
(0.00423162 -0.155325 0.00283898)
(0.00623363 -0.180805 0.00366079)
(0.0078725 -0.193619 0.00394364)
(0.00923093 -0.199878 0.00388413)
(0.0104308 -0.202435 0.00359846)
(0.0114329 -0.202343 0.00319953)
(0.0123363 -0.200169 0.00267315)
(0.013101 -0.195632 0.00202821)
(0.0136859 -0.1888 0.00136782)
(0.0140342 -0.179152 0.000751683)
(0.0142174 -0.166902 0.000245836)
(0.0140825 -0.153632 -0.000307136)
(0.0136516 -0.139226 -0.000750621)
(0.0132809 -0.123555 -0.000858911)
(0.0127906 -0.107023 -0.000702799)
(0.012274 -0.0898302 -0.000462828)
(0.0117551 -0.0720519 -0.000449166)
(0.0112316 -0.0537935 -0.00108342)
(0.0106868 -0.0352717 -0.00276568)
(0.0100876 -0.0170431 -0.00556505)
(0.00959873 -0.00013687 -0.0089176)
(0.00930993 0.0121697 -0.0113497)
(0.00896162 0.0252084 -0.0134484)
(0.00856034 0.0375792 -0.0146437)
(0.00814559 0.0503771 -0.0147081)
(0.00773077 0.064495 -0.0134746)
(0.00723489 0.0809063 -0.0106638)
(0.00648923 0.100683 -0.00588609)
(0.00533428 0.124476 0.000504367)
(0.00356615 0.149121 0.00651073)
(0.00191937 0.164146 0.00935268)
(0.000586027 0.163991 0.00914946)
(-0.000151683 0.108999 0.00392274)
(0.000263324 -0.0485173 0.000255028)
(0.00205232 -0.124277 0.00220214)
(0.00425947 -0.170817 0.00399374)
(0.00627876 -0.19425 0.00480133)
(0.00796249 -0.20468 0.00491593)
(0.0093779 -0.208966 0.00469471)
(0.0106087 -0.209801 0.0042674)
(0.0115432 -0.208367 0.00376739)
(0.0123436 -0.204535 0.00307655)
(0.0127798 -0.198763 0.00228652)
(0.0128458 -0.190528 0.00130813)
(0.0127004 -0.179654 5.28443e-06)
(0.012596 -0.166737 -0.00148903)
(0.0122408 -0.152148 -0.00287556)
(0.0118677 -0.136307 -0.00399463)
(0.0114252 -0.119666 -0.00472351)
(0.0109727 -0.102453 -0.00500718)
(0.0105317 -0.0847722 -0.00491517)
(0.0101139 -0.0666072 -0.0046196)
(0.00972976 -0.0476813 -0.00438963)
(0.00935819 -0.0276026 -0.00462781)
(0.00887783 -0.00735968 -0.00575621)
(0.0085005 0.00717146 -0.00740573)
(0.00818118 0.0199751 -0.00959919)
(0.00774769 0.033189 -0.0119439)
(0.00726223 0.0462033 -0.0135732)
(0.006756 0.0592337 -0.0142507)
(0.00622523 0.0734113 -0.0137663)
(0.00563356 0.0901416 -0.0118367)
(0.00485691 0.110672 -0.00810622)
(0.00375661 0.135028 -0.00295)
(0.00233673 0.158488 0.00173229)
(0.00116679 0.170912 0.00386433)
(0.000221574 0.168408 0.00392906)
(-0.000300155 0.109091 0.00078867)
(0.000269186 -0.0554009 0.000278959)
(0.00183605 -0.136723 0.00295159)
(0.00357129 -0.184185 0.00511527)
(0.00506762 -0.207163 0.00607188)
(0.00631627 -0.217049 0.00625721)
(0.00738452 -0.220737 0.00606209)
(0.00832915 -0.220763 0.00563501)
(0.00902633 -0.218198 0.00509367)
(0.00949032 -0.212637 0.00432348)
(0.00976958 -0.203859 0.00329865)
(0.00953305 -0.192644 0.00213098)
(0.00951725 -0.17995 0.000583093)
(0.00892329 -0.165895 -0.00103233)
(0.00847 -0.15034 -0.00284331)
(0.00790035 -0.133833 -0.00464662)
(0.00734841 -0.116805 -0.00618162)
(0.00689245 -0.0995143 -0.00724338)
(0.00656376 -0.0820639 -0.00774498)
(0.00636458 -0.0643576 -0.00766988)
(0.00622101 -0.0460104 -0.00712087)
(0.00616465 -0.0266353 -0.00633547)
(0.00625308 -0.00697665 -0.00576952)
(0.00631082 0.00841952 -0.00596223)
(0.00620365 0.0232522 -0.00705152)
(0.00587909 0.0379809 -0.00888027)
(0.00547156 0.051754 -0.0107254)
(0.00502883 0.0652761 -0.0120627)
(0.00455549 0.0798855 -0.0125211)
(0.00402994 0.0972062 -0.0117333)
(0.00336864 0.118586 -0.00936816)
(0.00248615 0.143243 -0.00566961)
(0.00148527 0.165493 -0.00217703)
(0.000721527 0.176256 -0.000426487)
(6.56377e-05 0.171995 0.000103317)
(-0.000302237 0.109022 -0.000874753)
(0.000225113 -0.0616638 0.00109077)
(0.0014215 -0.147066 0.00463049)
(0.00257846 -0.193981 0.00695288)
(0.00345063 -0.215088 0.00788627)
(0.00409094 -0.223461 0.00809104)
(0.00459829 -0.225936 0.00795609)
(0.00495028 -0.22484 0.00762854)
(0.00514658 -0.220641 0.007054)
(0.00513662 -0.213719 0.00622654)
(0.00496275 -0.204271 0.0051239)
(0.00496449 -0.192482 0.0036951)
(0.00426315 -0.178903 0.0022723)
(0.0039193 -0.163573 0.000345441)
(0.00346502 -0.147233 -0.00175262)
(0.00308284 -0.130441 -0.00380953)
(0.00280297 -0.113592 -0.00564106)
(0.00266932 -0.0967703 -0.00714375)
(0.00259916 -0.0798559 -0.00808471)
(0.00262267 -0.0625629 -0.00841872)
(0.00279624 -0.0445359 -0.00825334)
(0.00306876 -0.0256179 -0.00770027)
(0.00343645 -0.00660742 -0.00700188)
(0.00369927 0.00965984 -0.00661307)
(0.00372019 0.0261982 -0.00680784)
(0.00369117 0.0422058 -0.00761134)
(0.00350809 0.0570324 -0.0088334)
(0.00323858 0.0713497 -0.0100543)
(0.00289445 0.0865701 -0.0108499)
(0.00248892 0.104414 -0.0107945)
(0.0020063 0.126181 -0.00952793)
(0.00142157 0.150692 -0.00713719)
(0.000797935 0.171837 -0.00468777)
(0.00031897 0.181443 -0.0032811)
(-0.000100398 0.175632 -0.00248079)
(-0.00028692 0.109132 -0.00178655)
(0.000160604 -0.066371 0.00191749)
(0.000725683 -0.15474 0.00601261)
(0.00111136 -0.201248 0.00829543)
(0.00131516 -0.221421 0.00919321)
(0.00143991 -0.229125 0.00941003)
(0.00152274 -0.231022 0.00931438)
(0.00154799 -0.229252 0.00902884)
(0.00150068 -0.224347 0.00855361)
(0.00141346 -0.216543 0.00786041)
(0.00120075 -0.205957 0.00689775)
(0.000972697 -0.192973 0.00561715)
(0.000847519 -0.178525 0.00406576)
(0.000599774 -0.163121 0.00238472)
(0.000407792 -0.146944 0.00053826)
(0.000279031 -0.130354 -0.00137759)
(0.000240251 -0.113671 -0.0032055)
(0.000242599 -0.0971147 -0.00471498)
(0.000352131 -0.0806457 -0.00585647)
(0.000579941 -0.0639283 -0.00665877)
(0.000864231 -0.0465557 -0.00707383)
(0.00123667 -0.0282874 -0.00709245)
(0.0016889 -0.0093638 -0.00680591)
(0.00204688 0.00934243 -0.00637829)
(0.00226932 0.0261019 -0.00616474)
(0.00236676 0.042874 -0.00647007)
(0.00243679 0.0588963 -0.00733209)
(0.00236105 0.074385 -0.0084298)
(0.00217026 0.0905541 -0.00940203)
(0.00187981 0.109088 -0.00983656)
(0.00150694 0.13126 -0.00935479)
(0.00108221 0.155852 -0.00792741)
(0.000637576 0.176621 -0.00624143)
(0.000272806 0.185753 -0.00510222)
(-4.80126e-05 0.178799 -0.004144)
(-0.00018538 0.109237 -0.00248073)
(7.17854e-05 -0.0685849 0.00283444)
(4.98185e-05 -0.157204 0.00712454)
(-0.00028665 -0.203366 0.00955855)
(-0.00063844 -0.22314 0.0107494)
(-0.000983899 -0.230643 0.0113158)
(-0.0013073 -0.232327 0.0115829)
(-0.00161806 -0.23029 0.0116716)
(-0.0019091 -0.225188 0.011585)
(-0.0021884 -0.217363 0.0112845)
(-0.00240733 -0.20711 0.0107102)
(-0.00254169 -0.194703 0.00980572)
(-0.00255588 -0.180447 0.00853373)
(-0.0024749 -0.164927 0.00695624)
(-0.00230437 -0.148672 0.0051664)
(-0.00207147 -0.132064 0.00325796)
(-0.0017892 -0.115422 0.00136327)
(-0.00146334 -0.0988949 -0.000384977)
(-0.0011221 -0.0823923 -0.00187032)
(-0.000768916 -0.0656242 -0.00300464)
(-0.000381662 -0.0482615 -0.00377343)
(5.83577e-05 -0.0301015 -0.0042249)
(0.00055111 -0.0112743 -0.00443912)
(0.00106513 0.00759174 -0.00450594)
(0.00150402 0.0252283 -0.00455094)
(0.0018495 0.0428514 -0.00483822)
(0.00204066 0.0596361 -0.00532387)
(0.00206396 0.0763481 -0.00632093)
(0.00197333 0.0937692 -0.00738889)
(0.00174237 0.11337 -0.00821181)
(0.00141682 0.136217 -0.00840619)
(0.00104522 0.160968 -0.00780472)
(0.000643068 0.181447 -0.00677869)
(0.000303068 0.190149 -0.0058993)
(1.04592e-05 0.182168 -0.00486944)
(-0.000128453 0.109795 -0.0025457)
(-4.67201e-05 -0.0688863 0.00309999)
(-0.000356261 -0.157513 0.00715459)
(-0.000882253 -0.203723 0.00931794)
(-0.00140482 -0.22391 0.0105476)
(-0.00189829 -0.231862 0.011392)
(-0.00234808 -0.233951 0.0120355)
(-0.00276252 -0.232324 0.0125896)
(-0.00310759 -0.227612 0.0130461)
(-0.00337067 -0.220211 0.0134012)
(-0.00353316 -0.210467 0.0136284)
(-0.00357032 -0.198739 0.0136637)
(-0.00346143 -0.185356 0.01341)
(-0.00319726 -0.170603 0.0127647)
(-0.0027995 -0.154798 0.0116798)
(-0.00230514 -0.138274 0.0101817)
(-0.00176824 -0.121335 0.00836661)
(-0.00124191 -0.104253 0.00639661)
(-0.000742197 -0.0872065 0.00446583)
(-0.000275625 -0.0701484 0.00273994)
(0.000165574 -0.0527848 0.00131686)
(0.000619539 -0.0347645 0.000209738)
(0.00109552 -0.0159519 -0.000643218)
(0.0015636 0.00326941 -0.00134626)
(0.00200867 0.0214966 -0.00192174)
(0.00241912 0.0403747 -0.00256658)
(0.00258862 0.0588566 -0.00345697)
(0.00268019 0.0769028 -0.00427677)
(0.00251961 0.0956182 -0.00557029)
(0.00227949 0.116357 -0.00668432)
(0.0019087 0.140073 -0.00730679)
(0.00149093 0.165331 -0.00724525)
(0.00102422 0.185859 -0.00667214)
(0.000610694 0.194298 -0.00598947)
(0.000250619 0.185501 -0.00494125)
(-1.41459e-05 0.110749 -0.00226733)
(-5.306e-05 -0.0684068 0.00338995)
(-0.000434716 -0.157355 0.00696343)
(-0.00100413 -0.203807 0.00866783)
(-0.00149402 -0.224055 0.00964817)
(-0.0019279 -0.232145 0.0104285)
(-0.00229616 -0.234469 0.0111046)
(-0.00260484 -0.233281 0.0117818)
(-0.0028257 -0.229261 0.0124774)
(-0.00294791 -0.222814 0.013195)
(-0.00295545 -0.214234 0.01391)
(-0.00284111 -0.203769 0.0145716)
(-0.0026035 -0.191605 0.0150985)
(-0.00224649 -0.177912 0.0153868)
(-0.00177978 -0.162869 0.0153277)
(-0.00122511 -0.146699 0.014836)
(-0.000607466 -0.129668 0.0138788)
(3.64152e-05 -0.11207 0.0124948)
(0.000636314 -0.0941883 0.0108017)
(0.00117262 -0.0762019 0.00897542)
(0.00165635 -0.0580589 0.00718603)
(0.00207983 -0.0394932 0.00554706)
(0.00246462 -0.0202461 0.00408987)
(0.00280457 -0.000550763 0.00277869)
(0.00314065 0.0177246 0.00174574)
(0.0034809 0.037657 0.000760948)
(0.00367471 0.0574895 -0.000294017)
(0.00370443 0.077108 -0.00149074)
(0.00352524 0.0974544 -0.00290171)
(0.00318909 0.119607 -0.00433217)
(0.00274179 0.144355 -0.00547873)
(0.00222384 0.170177 -0.00600284)
(0.00161326 0.190792 -0.00588593)
(0.00104263 0.199038 -0.00541365)
(0.00053828 0.189581 -0.00441555)
(7.34182e-05 0.112625 -0.00171345)
(-5.68604e-05 -0.0680329 0.0033351)
(-0.000409962 -0.156972 0.00640331)
(-0.00088112 -0.20424 0.00726063)
(-0.00123533 -0.225387 0.00777886)
(-0.00150656 -0.234214 0.00829196)
(-0.00170427 -0.237215 0.00882364)
(-0.00183537 -0.236725 0.00942567)
(-0.00189316 -0.233439 0.010116)
(-0.00187661 -0.227748 0.0109108)
(-0.00178418 -0.21993 0.011812)
(-0.00161751 -0.21022 0.0127974)
(-0.00137862 -0.198806 0.0138164)
(-0.00106088 -0.185851 0.0147927)
(-0.000662856 -0.171498 0.0156241)
(-0.000191698 -0.155883 0.016191)
(0.000344777 -0.139154 0.016375)
(0.000928406 -0.121503 0.016086)
(0.0015325 -0.103167 0.0152923)
(0.00211115 -0.0843929 0.0140441)
(0.00262784 -0.0653179 0.0124592)
(0.00307945 -0.0458416 0.0106697)
(0.00348461 -0.0257485 0.00877475)
(0.00384321 -0.00531785 0.00686251)
(0.00403487 0.0130554 0.00531036)
(0.0041933 0.0339006 0.00372695)
(0.00438772 0.0550264 0.00234416)
(0.00437296 0.0762784 0.000832996)
(0.0042255 0.0982064 -0.000578897)
(0.00386824 0.121927 -0.00215607)
(0.0033722 0.148097 -0.00361971)
(0.00277001 0.175015 -0.00457661)
(0.00201513 0.196136 -0.00482279)
(0.00129329 0.204388 -0.0045384)
(0.000658332 0.194395 -0.0036413)
(7.04618e-05 0.115102 -0.00115833)
(-7.46539e-05 -0.068007 0.00322317)
(-0.000340024 -0.157349 0.00566589)
(-0.000653113 -0.205016 0.00622123)
(-0.000880114 -0.22669 0.00638201)
(-0.00106185 -0.235899 0.00656869)
(-0.00119523 -0.239252 0.00681906)
(-0.0012811 -0.239127 0.00716138)
(-0.00131793 -0.23628 0.00762515)
(-0.00130314 -0.231126 0.00823766)
(-0.00123372 -0.223951 0.00901998)
(-0.00110427 -0.214977 0.00998031)
(-0.000910929 -0.204371 0.0111053)
(-0.000661404 -0.192248 0.0123537)
(-0.000353165 -0.178712 0.0136558)
(2.38843e-05 -0.163857 0.0149125)
(0.000467571 -0.147773 0.0160031)
(0.000974515 -0.130551 0.0167956)
(0.00153332 -0.112312 0.0171652)
(0.00211771 -0.0932289 0.0170206)
(0.00268714 -0.0735024 0.0163349)
(0.00320915 -0.0532494 0.0151431)
(0.00367663 -0.0324262 0.0135107)
(0.00408374 -0.010915 0.011492)
(0.00427272 0.0108487 0.00915657)
(0.00440134 0.0302077 0.00720105)
(0.00462294 0.0523834 0.00529481)
(0.00466513 0.0751773 0.00367092)
(0.00452641 0.0988062 0.00232519)
(0.004138 0.124218 0.000245344)
(0.00361635 0.152015 -0.00167781)
(0.00295018 0.180215 -0.00307324)
(0.00212388 0.201882 -0.00366847)
(0.00134209 0.210016 -0.00358091)
(0.000637818 0.199165 -0.00281997)
(2.28965e-05 0.117198 -0.000653088)
(-5.89732e-05 -0.0680596 0.00298038)
(-0.000230883 -0.157736 0.00488331)
(-0.000403127 -0.206086 0.00490814)
(-0.000497204 -0.22835 0.00480613)
(-0.00055277 -0.237992 0.00482728)
(-0.000582347 -0.24175 0.00493784)
(-0.000581632 -0.241987 0.0051303)
(-0.00054932 -0.239525 0.00543149)
(-0.000482049 -0.234785 0.00587186)
(-0.000380065 -0.228057 0.00647982)
(-0.000244606 -0.21958 0.00727651)
(-7.35737e-05 -0.20955 0.00827376)
(0.000133364 -0.1981 0.00946908)
(0.00037728 -0.185321 0.0108371)
(0.000665958 -0.171284 0.012325)
(0.0010052 -0.156031 0.0138507)
(0.00139842 -0.139591 0.0153037)
(0.00183821 -0.121982 0.0165504)
(0.00232532 -0.103242 0.0174448)
(0.00284546 -0.083454 0.0178521)
(0.00335475 -0.0626864 0.0176717)
(0.00381555 -0.0409486 0.0168416)
(0.0041994 -0.0182923 0.0153292)
(0.00448724 0.00463734 0.0131596)
(0.00469587 0.0246063 0.0110298)
(0.00485333 0.0479596 0.00856259)
(0.0048629 0.0724161 0.00620099)
(0.00468722 0.0980555 0.00384229)
(0.00434275 0.125458 0.00199317)
(0.00378067 0.155085 4.62484e-05)
(0.00309046 0.184701 -0.00158309)
(0.00223533 0.207039 -0.00244822)
(0.00142221 0.215177 -0.00253852)
(0.000675439 0.20362 -0.00193289)
(2.20668e-05 0.119099 -0.000139482)
(-5.14359e-05 -0.0685937 0.00249328)
(-9.5972e-05 -0.159186 0.00374959)
(-0.000109373 -0.207766 0.00366663)
(-6.12077e-05 -0.230205 0.00348103)
(1.63924e-05 -0.239988 0.0034113)
(0.000109675 -0.243905 0.00343318)
(0.000210216 -0.244319 0.00353882)
(0.000322744 -0.242086 0.00373816)
(0.000450635 -0.237618 0.00405254)
(0.000592318 -0.231214 0.00450556)
(0.000746755 -0.223105 0.00512043)
(0.000909062 -0.213491 0.00591819)
(0.00108201 -0.202508 0.00691606)
(0.00126963 -0.190261 0.00812191)
(0.00147256 -0.176823 0.00952709)
(0.0016952 -0.162239 0.0110987)
(0.00194602 -0.146515 0.012775)
(0.00224176 -0.129622 0.0144616)
(0.00258545 -0.111504 0.016029)
(0.00297181 -0.0921168 0.0173171)
(0.00339586 -0.0714245 0.0181526)
(0.00383372 -0.0493561 0.0183633)
(0.00424823 -0.0259287 0.0177912)
(0.0045764 -0.00192545 0.0163554)
(0.00473936 0.0191834 0.0144483)
(0.00488628 0.0441317 0.0117887)
(0.00495232 0.0701997 0.00898609)
(0.00479457 0.0974186 0.00635761)
(0.00443513 0.126601 0.00399055)
(0.00388306 0.157985 0.00177195)
(0.00319924 0.189014 -6.68053e-05)
(0.00233457 0.212054 -0.00112543)
(0.00148986 0.220189 -0.00137192)
(0.000721376 0.207855 -0.000956744)
(5.33245e-05 0.120783 0.000357955)
(-5.01631e-05 -0.0690797 0.00220644)
(-2.61919e-06 -0.160341 0.00308328)
(0.000153385 -0.209659 0.00265885)
(0.000369113 -0.232609 0.00225437)
(0.00058275 -0.242662 0.00205682)
(0.000800772 -0.246737 0.00199017)
(0.00102328 -0.247278 0.00201893)
(0.00124053 -0.245188 0.00213664)
(0.001457 -0.240835 0.00235524)
(0.00166526 -0.23455 0.00269042)
(0.00186564 -0.226575 0.00315967)
(0.00205502 -0.217129 0.00378249)
(0.00223174 -0.206373 0.00458181)
(0.00239613 -0.194432 0.00557948)
(0.00255263 -0.181403 0.0067895)
(0.00270936 -0.167345 0.00821319)
(0.0028771 -0.15227 0.00983255)
(0.00306818 -0.136135 0.0116041)
(0.00329541 -0.118842 0.0134522)
(0.0035696 -0.100255 0.0152601)
(0.003897 -0.0802235 0.0168704)
(0.00427716 -0.0585204 0.0180905)
(0.00471244 -0.0348687 0.0186899)
(0.00520281 -0.00966252 0.0184095)
(0.00536827 0.0129416 0.0171826)
(0.00538009 0.0372996 0.0150872)
(0.00544426 0.0658317 0.0121639)
(0.00526983 0.0955192 0.00918777)
(0.00487889 0.126866 0.00646157)
(0.00430116 0.16014 0.00393393)
(0.00358374 0.192694 0.00175084)
(0.00265132 0.216628 0.000362148)
(0.00172086 0.224921 -0.000116614)
(0.000873725 0.212081 6.15724e-05)
(0.000105584 0.122688 0.000852623)
(-2.97045e-05 -0.0700907 0.00173297)
(0.000177307 -0.162498 0.00209277)
(0.000509543 -0.212198 0.00146603)
(0.000865876 -0.235256 0.000930171)
(0.00120012 -0.245358 0.000619049)
(0.00151242 -0.249464 0.000451613)
(0.00181324 -0.250032 0.000385263)
(0.00210261 -0.247993 0.0004064)
(0.00238705 -0.243677 0.000521112)
(0.00265198 -0.237438 0.000745792)
(0.002898 -0.229522 0.00109306)
(0.0031207 -0.220151 0.00157605)
(0.00331851 -0.209506 0.00221205)
(0.0034913 -0.197729 0.00302272)
(0.0036412 -0.184936 0.00402918)
(0.0037727 -0.171208 0.00524814)
(0.00389351 -0.156582 0.00668229)
(0.00401693 -0.141035 0.00831854)
(0.00416088 -0.124467 0.0101265)
(0.00434301 -0.10671 0.0120492)
(0.00457635 -0.0875646 0.0139906)
(0.00486648 -0.0668267 0.0158068)
(0.00520752 -0.0442792 0.0172997)
(0.00559919 -0.0196508 0.0182197)
(0.00576117 0.00778262 0.0179985)
(0.00572524 0.0318349 0.0167723)
(0.00568507 0.0617336 0.0142526)
(0.00546074 0.0934638 0.0111498)
(0.00503363 0.126891 0.00812939)
(0.00441765 0.162172 0.00536229)
(0.00365115 0.1965 0.00303705)
(0.0026615 0.221511 0.00152135)
(0.00168411 0.230018 0.000914641)
(0.000810439 0.216608 0.00089862)
(5.58637e-05 0.12478 0.001175)
(-1.55779e-05 -0.0714259 0.00142627)
(0.00028032 -0.164905 0.00155348)
(0.000729977 -0.214894 0.000777955)
(0.0011829 -0.238015 7.78472e-05)
(0.0015972 -0.248139 -0.000401548)
(0.00197867 -0.252248 -0.000730906)
(0.00233289 -0.252808 -0.000948423)
(0.00265228 -0.250767 -0.00105878)
(0.00295328 -0.246424 -0.00106652)
(0.00322458 -0.240147 -0.000956107)
(0.00347006 -0.232185 -0.000718665)
(0.00368429 -0.222772 -0.000344593)
(0.00386404 -0.21211 0.000176914)
(0.00400882 -0.200364 0.000858127)
(0.00412287 -0.187674 0.00171575)
(0.00420958 -0.174137 0.00278525)
(0.00427184 -0.159815 0.00407451)
(0.00431862 -0.144718 0.00556849)
(0.0043658 -0.128764 0.00725262)
(0.00443209 -0.111764 0.00910588)
(0.00453471 -0.0934193 0.0110837)
(0.0046844 -0.073318 0.0131066)
(0.00487356 -0.050934 0.0150317)
(0.00506135 -0.025837 0.0166108)
(0.00529335 0.00136595 0.017478)
(0.00546438 0.0260792 0.0171538)
(0.00551903 0.0574871 0.0153438)
(0.00531154 0.0914295 0.0124182)
(0.00485836 0.127146 0.00921249)
(0.00416158 0.16453 0.00641567)
(0.00330005 0.200479 0.00404689)
(0.0022751 0.226273 0.00244528)
(0.00135146 0.234748 0.00171889)
(0.000529447 0.220451 0.00150844)
(-8.13704e-05 0.126162 0.00131862)
(-1.49414e-06 -0.0729569 0.00104741)
(0.000364612 -0.167737 0.000783946)
(0.00091238 -0.217931 -9.2199e-05)
(0.00145505 -0.240837 -0.000796936)
(0.00194541 -0.250739 -0.00128923)
(0.00239067 -0.254672 -0.00166115)
(0.00279743 -0.255075 -0.00195288)
(0.00315149 -0.252903 -0.00215909)
(0.00346987 -0.24842 -0.00228509)
(0.00373861 -0.242012 -0.00230492)
(0.00396509 -0.233929 -0.00220346)
(0.00414746 -0.224414 -0.0019683)
(0.00428583 -0.213682 -0.00159126)
(0.00438006 -0.20192 -0.00107575)
(0.0044288 -0.189303 -0.000434846)
(0.00443255 -0.175886 0.000472763)
(0.0044082 -0.161736 0.0016945)
(0.00436872 -0.146931 0.00311121)
(0.00431935 -0.131414 0.00470464)
(0.0042699 -0.115004 0.00649576)
(0.00423763 -0.0974225 0.00847148)
(0.0042471 -0.0782696 0.0106102)
(0.00432504 -0.0569805 0.012842)
(0.00449355 -0.0329626 0.0149839)
(0.00476845 -0.00640521 0.0166651)
(0.00494125 0.0191164 0.0171595)
(0.00503147 0.0522762 0.016169)
(0.00490299 0.0887343 0.0137019)
(0.00439355 0.127251 0.0107518)
(0.00363447 0.166931 0.00725519)
(0.00265499 0.204479 0.00462761)
(0.00169579 0.230545 0.00294447)
(0.00094013 0.238571 0.00214885)
(0.00023745 0.222969 0.00181571)
(-0.000167281 0.126316 0.00136845)
(-6.83236e-06 -0.0745414 0.000819129)
(0.000376749 -0.170604 0.000382085)
(0.000959739 -0.221071 -0.000580672)
(0.00153677 -0.243835 -0.00136083)
(0.00206376 -0.253519 -0.00190968)
(0.00254561 -0.257216 -0.00232573)
(0.002986 -0.257358 -0.00265973)
(0.00336474 -0.254919 -0.00291732)
(0.0036972 -0.250148 -0.00311507)
(0.00396998 -0.243458 -0.00322893)
(0.00418931 -0.235118 -0.00324228)
(0.00435498 -0.22538 -0.00313821)
(0.00446911 -0.214468 -0.00290225)
(0.0045377 -0.202545 -0.002527)
(0.00454089 -0.189705 -0.00185358)
(0.00450225 -0.176282 -0.00105882)
(0.00442605 -0.162391 -0.000169254)
(0.0043366 -0.147946 0.000909292)
(0.00423242 -0.132826 0.00231492)
(0.00412133 -0.116894 0.00406102)
(0.00402635 -0.0999869 0.0059632)
(0.00395579 -0.0817038 0.00808029)
(0.00393934 -0.0614695 0.0104234)
(0.0040172 -0.0385583 0.0129189)
(0.00423236 -0.0125888 0.0152906)
(0.00422332 0.0140661 0.0166621)
(0.00411815 0.0470134 0.0167035)
(0.00406156 0.0863636 0.0148587)
(0.00371419 0.127213 0.0119816)
(0.00306576 0.169484 0.00881515)
(0.00229076 0.20784 0.00550226)
(0.00153762 0.233624 0.00355673)
(0.000876673 0.241074 0.00264681)
(0.000292654 0.224331 0.00217491)
(-4.73489e-05 0.126108 0.00151375)
(-1.10885e-05 -0.0759362 0.000605292)
(0.000367852 -0.173235 -1.49748e-05)
(0.000952041 -0.223881 -0.00102154)
(0.00153447 -0.246447 -0.0018224)
(0.00207148 -0.255923 -0.00240092)
(0.00257642 -0.25942 -0.0028562)
(0.00303681 -0.259338 -0.00322367)
(0.00344764 -0.256621 -0.0035354)
(0.00380496 -0.251564 -0.00379518)
(0.0041086 -0.244576 -0.00398441)
(0.00435875 -0.235938 -0.0040892)
(0.00454842 -0.225923 -0.00408907)
(0.00469168 -0.214766 -0.00396546)
(0.00475984 -0.202577 -0.00352724)
(0.00477158 -0.189692 -0.00285612)
(0.00475806 -0.176275 -0.0021274)
(0.00471567 -0.162404 -0.00137434)
(0.00461472 -0.148062 -0.000465302)
(0.00449006 -0.13326 0.00055448)
(0.00437905 -0.117884 0.00173953)
(0.00422783 -0.101534 0.00346899)
(0.00412376 -0.0840265 0.00544213)
(0.00405016 -0.064889 0.00770185)
(0.00404111 -0.0434543 0.0102445)
(0.00411996 -0.0187393 0.013002)
(0.00400728 0.0112137 0.0154859)
(0.0038442 0.0417923 0.0166336)
(0.00386236 0.0819063 0.0158871)
(0.00375371 0.125564 0.0129914)
(0.00333583 0.169283 0.00968882)
(0.00281774 0.209185 0.00681351)
(0.00207935 0.235742 0.00476903)
(0.00129758 0.243348 0.00369969)
(0.000630016 0.226316 0.00299373)
(9.69224e-05 0.126362 0.00177866)
(-3.43862e-06 -0.0772488 0.000350807)
(0.000416069 -0.175798 -0.000450985)
(0.00104946 -0.226643 -0.00148834)
(0.00167015 -0.249002 -0.00230082)
(0.00223505 -0.258253 -0.00289971)
(0.00276459 -0.26154 -0.00338695)
(0.00324199 -0.261247 -0.00379533)
(0.00367648 -0.258215 -0.00417112)
(0.00405022 -0.252895 -0.00449878)
(0.00437518 -0.245624 -0.00476745)
(0.00464546 -0.236687 -0.00496226)
(0.00487255 -0.226354 -0.00505949)
(0.00501882 -0.214807 -0.0049056)
(0.00513958 -0.202503 -0.00465407)
(0.00522311 -0.189629 -0.00428732)
(0.00527762 -0.176234 -0.00376092)
(0.00528367 -0.162345 -0.00300541)