/*--------------------------------*- C++ -*----------------------------------*\
| =========                 |                                                 |
| \\      /  F ield         | OpenFOAM: The Open Source CFD Toolbox           |
|  \\    /   O peration     | Version:  2.3.x                                 |
|   \\  /    A nd           | Web:      www.OpenFOAM.org                      |
|    \\/     M anipulation  |                                                 |
\*---------------------------------------------------------------------------*/
FoamFile
{
    version     2.0;
    format      ascii;
    class       volVectorField;
    location    "1000";
    object      U;
}
// * * * * * * * * * * * * * * * * * * * * * * * * * * * * * * * * * * * * * //

dimensions      [0 1 -1 0 0 0 0];

internalField   nonuniform List<vector> 
78750
(
(-0.00276465 0.0179017 0.0300816)
(-0.010413 0.0153959 0.0491103)
(-0.0193486 0.000352653 0.0500351)
(-0.026042 -0.0141773 0.0479409)
(-0.0286077 -0.0246813 0.046338)
(-0.0283036 -0.0348046 0.0454311)
(-0.0262876 -0.0432385 0.0451347)
(-0.0201174 -0.0504988 0.0440423)
(-0.0129992 -0.0552569 0.0432427)
(-0.00467378 -0.0581586 0.0426508)
(0.00416179 -0.0594668 0.0422239)
(0.0132685 -0.0596212 0.041903)
(0.0222476 -0.0590663 0.041644)
(0.0310258 -0.0582085 0.0412899)
(0.0393989 -0.0562258 0.0411232)
(0.0476143 -0.0575216 0.0393579)
(0.0551234 -0.0581831 0.0374921)
(0.0618985 -0.0566259 0.0363046)
(0.0680968 -0.0536283 0.0356192)
(0.0729832 -0.0506518 0.034819)
(0.0773768 -0.0456351 0.0350448)
(0.0808259 -0.0389288 0.0353731)
(0.082302 -0.0355913 0.0355477)
(0.0836683 -0.0306667 0.0357542)
(0.0835432 -0.0262889 0.0359623)
(0.0822705 -0.0214343 0.0362744)
(0.0798755 -0.0162747 0.0367189)
(0.0760649 -0.0110893 0.0373144)
(0.0706366 -0.00539477 0.0379476)
(0.0642131 0.000472553 0.0387915)
(0.0562407 0.00761849 0.039885)
(0.0463616 0.0147109 0.0415643)
(0.0346107 0.0204835 0.0447494)
(0.0204997 0.0282277 0.0480039)
(0.00663795 0.0323535 0.0333508)
(0.000569449 0.0232026 0.0197051)
(0.00238227 0.0372817 0.0365408)
(0.00325773 0.0302309 0.0404681)
(0.00674583 0.00655005 0.0388655)
(0.0101817 -0.0178521 0.0362902)
(0.0143459 -0.046293 0.0328841)
(0.0214813 -0.0751795 0.0287606)
(0.0261 -0.0946732 0.0258191)
(0.0311462 -0.106665 0.023851)
(0.0361033 -0.113888 0.0224578)
(0.0406716 -0.117233 0.0214587)
(0.0455894 -0.117465 0.0205764)
(0.0494561 -0.115968 0.020091)
(0.0532735 -0.113612 0.0196648)
(0.057134 -0.109625 0.0191402)
(0.0599389 -0.101762 0.0197944)
(0.062234 -0.0926365 0.0206796)
(0.0640322 -0.0836058 0.0212156)
(0.0652726 -0.0743926 0.0216303)
(0.0661848 -0.0651195 0.0220344)
(0.0663959 -0.0565874 0.0215944)
(0.0664632 -0.0477344 0.0211968)
(0.0660496 -0.0384852 0.0208862)
(0.0650444 -0.0288581 0.0206969)
(0.0634843 -0.0187884 0.020706)
(0.0612273 -0.00849138 0.0208683)
(0.058692 0.00197664 0.0213893)
(0.0539905 0.0181112 0.0226331)
(0.0507211 0.0258989 0.0233737)
(0.0448732 0.0378765 0.0253021)
(0.0381989 0.0519316 0.0270435)
(0.0310338 0.0672839 0.0294798)
(0.0219568 0.085275 0.0325921)
(0.011358 0.101616 0.0336787)
(0.00305358 0.0915088 0.0243237)
(-0.000269037 -0.00824349 0.0134324)
(0.00235369 -0.0292237 0.0241667)
(0.0075451 -0.0576004 0.0257191)
(0.0140766 -0.0895914 0.0234523)
(0.0208668 -0.118219 0.0204841)
(0.0269049 -0.136814 0.0185762)
(0.0310835 -0.143838 0.0181417)
(0.0339957 -0.146885 0.0179903)
(0.0362984 -0.147622 0.0179245)
(0.0374894 -0.146807 0.0178931)
(0.0385812 -0.144048 0.0177994)
(0.0392288 -0.140056 0.0177135)
(0.0396837 -0.134919 0.0176011)
(0.0400086 -0.12859 0.0174566)
(0.0399571 -0.121067 0.0173072)
(0.040143 -0.112856 0.0168935)
(0.0397025 -0.105003 0.0157753)
(0.0398833 -0.0968671 0.0146225)
(0.0396857 -0.0881795 0.0134613)
(0.0397802 -0.0787746 0.0124747)
(0.0395247 -0.0686515 0.0115488)
(0.0390027 -0.0579498 0.0105803)
(0.0382527 -0.0468247 0.00965073)
(0.0372218 -0.0353684 0.00887194)
(0.0358908 -0.0237027 0.00831662)
(0.0342642 -0.0110848 0.00808034)
(0.0317526 0.00567949 0.00872211)
(0.0301532 0.0154154 0.00934709)
(0.0275119 0.0306698 0.0102141)
(0.024379 0.0480584 0.0120455)
(0.0211792 0.0651946 0.0161062)
(0.0168114 0.0851582 0.0210375)
(0.0108609 0.10833 0.0271514)
(0.00500789 0.123318 0.0276258)
(0.00100081 0.105393 0.0172634)
(-1.03685e-05 -0.0121528 0.00855882)
(0.00204965 -0.0508884 0.0128976)
(0.00558763 -0.0896294 0.0120511)
(0.00929437 -0.118603 0.0107277)
(0.0120965 -0.135357 0.0102138)
(0.0138691 -0.144448 0.0101584)
(0.015146 -0.150073 0.0101672)
(0.0162357 -0.153062 0.0102231)
(0.0172984 -0.153925 0.0103233)
(0.0181809 -0.152993 0.0103778)
(0.0190801 -0.150285 0.0103993)
(0.0199074 -0.146267 0.0104287)
(0.0206809 -0.141075 0.0104696)
(0.0214091 -0.134808 0.0105497)
(0.0221304 -0.127433 0.0107605)
(0.0224485 -0.118734 0.0112307)
(0.0233719 -0.108661 0.0119609)
(0.0234344 -0.0985621 0.0119156)
(0.0234312 -0.0883289 0.0111781)
(0.0229947 -0.0772865 0.0096711)
(0.0225286 -0.0654465 0.00790911)
(0.0219635 -0.053092 0.00610474)
(0.0212439 -0.0404354 0.00424044)
(0.0204422 -0.027489 0.00238702)
(0.0195797 -0.0133634 0.000600879)
(0.0183748 0.00312775 -0.000953318)
(0.0175771 0.0138481 -0.00145317)
(0.0165746 0.0276148 -0.000994672)
(0.0154403 0.0412762 0.00100045)
(0.0139598 0.0567771 0.00411373)
(0.012126 0.0762398 0.00897522)
(0.00922285 0.100711 0.015841)
(0.00552793 0.125206 0.0216644)
(0.00180859 0.135871 0.0218583)
(6.64163e-05 0.105805 0.0132078)
(0.000214645 -0.0262805 0.00566981)
(0.00224978 -0.0786795 0.00881586)
(0.00451714 -0.118578 0.00901486)
(0.00639496 -0.144024 0.0087452)
(0.00778996 -0.158629 0.00851558)
(0.00896269 -0.166165 0.00842746)
(0.00996532 -0.169444 0.00847509)
(0.0108577 -0.170309 0.00864066)
(0.0115908 -0.169373 0.0088284)
(0.0122847 -0.166693 0.00907797)
(0.0128639 -0.162601 0.00941542)
(0.0133751 -0.157215 0.00982676)
(0.0138067 -0.150646 0.0102928)
(0.0141418 -0.142984 0.0107777)
(0.0143686 -0.134305 0.0112264)
(0.0145503 -0.124667 0.0116103)
(0.0146414 -0.114138 0.0119675)
(0.0145854 -0.102769 0.012259)
(0.0146299 -0.0907453 0.0122675)
(0.0142357 -0.0785261 0.012108)
(0.0139772 -0.0660951 0.0114493)
(0.0135487 -0.0535028 0.010148)
(0.0130665 -0.0407988 0.00824201)
(0.0125435 -0.0279313 0.00583755)
(0.0119923 -0.0145564 0.00302895)
(0.011523 -0.000515948 8.2429e-05)
(0.0112016 0.00992292 -0.00157923)
(0.0107805 0.0234889 -0.0024972)
(0.0104123 0.0389642 -0.00194415)
(0.00969146 0.0566305 0.000267695)
(0.00839241 0.0781994 0.00434081)
(0.00648018 0.104852 0.0111745)
(0.00389717 0.129391 0.0165513)
(0.00137788 0.137834 0.0169218)
(4.52145e-05 0.102384 0.00990701)
(0.000165583 -0.0337128 0.00397166)
(0.00109776 -0.0899002 0.00534994)
(0.00206128 -0.127874 0.00449282)
(0.0029639 -0.150247 0.00364192)
(0.00366601 -0.162165 0.00327365)
(0.00418707 -0.168386 0.00321882)
(0.00463636 -0.171398 0.00330391)
(0.00509651 -0.172149 0.00345378)
(0.00555205 -0.171105 0.00360758)
(0.00604611 -0.168364 0.00378416)
(0.00655322 -0.164196 0.00401915)
(0.00708338 -0.158734 0.00434216)
(0.00763047 -0.15209 0.00478865)
(0.00819151 -0.144348 0.00539111)
(0.0087567 -0.13557 0.00617099)
(0.00931325 -0.125814 0.00711838)
(0.00985404 -0.115287 0.00814515)
(0.0102856 -0.103875 0.00924536)
(0.0107368 -0.0916298 0.010354)
(0.0111073 -0.0789066 0.0110546)
(0.0112888 -0.0659884 0.0111501)
(0.0113445 -0.052774 0.0106384)
(0.0112567 -0.039322 0.0094866)
(0.011048 -0.0255644 0.00770098)
(0.0107456 -0.0112293 0.00526505)
(0.0103016 0.00339911 0.00229586)
(0.00989004 0.0138173 0.000151847)
(0.00937801 0.026525 -0.00168118)
(0.00885804 0.0409839 -0.00234224)
(0.00825211 0.0586835 -0.00116092)
(0.00719864 0.08205 0.0024395)
(0.00554846 0.110593 0.0082266)
(0.00337976 0.134879 0.0127426)
(0.00124386 0.141698 0.0129651)
(1.95472e-05 0.101084 0.00665349)
(5.66322e-05 -0.0378982 0.00255945)
(0.000673981 -0.0970966 0.00326042)
(0.00149449 -0.136011 0.00276199)
(0.0023539 -0.158727 0.00232022)
(0.00312637 -0.1709 0.00207166)
(0.00382321 -0.177227 0.00193787)
(0.00446258 -0.180182 0.00186175)
(0.00507065 -0.180831 0.00182635)
(0.00564117 -0.179684 0.00181324)
(0.00623303 -0.176806 0.00183178)
(0.00680194 -0.172469 0.00192779)
(0.00737434 -0.166821 0.00212136)
(0.00795084 -0.16 0.0024345)
(0.0085284 -0.152078 0.00289181)
(0.00908513 -0.143117 0.00352159)
(0.00959346 -0.13315 0.00437021)
(0.0100373 -0.1221 0.00549979)
(0.0104148 -0.110242 0.0068525)
(0.010722 -0.0977059 0.0083724)
(0.0109764 -0.0844187 0.0100103)
(0.0111545 -0.0704046 0.0115391)
(0.0112255 -0.056036 0.0126174)
(0.011178 -0.0415529 0.0129401)
(0.0110176 -0.0270126 0.0122615)
(0.0107638 -0.0121308 0.0104812)
(0.010362 0.00299219 0.00742468)
(0.00997227 0.0138569 0.00497489)
(0.0094351 0.0271327 0.00232822)
(0.00878921 0.0421013 0.00037679)
(0.00799894 0.0606127 -6.5168e-05)
(0.00695928 0.085258 0.00200254)
(0.00540541 0.115366 0.00624341)
(0.00345649 0.13968 0.00974976)
(0.00150401 0.14541 0.0100791)
(0.000139494 0.101393 0.00550155)
(8.77582e-05 -0.0411385 0.00135588)
(0.000841618 -0.102751 0.00109299)
(0.0018898 -0.14174 0.000115402)
(0.00298693 -0.16353 -0.000655561)
(0.00397974 -0.174769 -0.00111347)
(0.00486218 -0.180465 -0.00139244)
(0.00565632 -0.183005 -0.00159428)
(0.00639857 -0.183355 -0.00175733)
(0.00706974 -0.182013 -0.00190203)
(0.00776063 -0.178946 -0.00205123)
(0.00841488 -0.174431 -0.0021573)
(0.00905967 -0.168667 -0.00220709)
(0.00965128 -0.1618 -0.00218365)
(0.0101486 -0.153707 -0.0020598)
(0.0105337 -0.144329 -0.00177289)
(0.0108232 -0.133814 -0.00122734)
(0.0110366 -0.122487 -0.00043312)
(0.0112028 -0.110579 0.000616953)
(0.0113329 -0.0981734 0.00195024)
(0.0114342 -0.0852386 0.00359408)
(0.0115196 -0.071742 0.00555792)
(0.0115786 -0.0576735 0.00775748)
(0.0115968 -0.0430633 0.00991218)
(0.011505 -0.0279153 0.011467)
(0.0113013 -0.0121631 0.0119184)
(0.0108686 0.0041822 0.0109487)
(0.0103905 0.0158068 0.00937644)
(0.00970804 0.0300059 0.00677853)
(0.00892049 0.0456744 0.00408159)
(0.0079853 0.0646999 0.002364)
(0.00687368 0.0899518 0.00291862)
(0.00538775 0.120869 0.00576847)
(0.0035432 0.145428 0.00838263)
(0.00164192 0.150567 0.00856473)
(0.000202443 0.103751 0.00463041)
(4.89316e-05 -0.0446025 0.00064875)
(0.000750689 -0.109452 0.000175543)
(0.00182444 -0.149499 -0.000585341)
(0.00298192 -0.171402 -0.00116948)
(0.0040712 -0.182541 -0.00155906)
(0.00507291 -0.188169 -0.00183873)
(0.00599243 -0.190686 -0.00207533)
(0.00684873 -0.190989 -0.00228791)
(0.00758955 -0.189555 -0.00249448)
(0.00829162 -0.186331 -0.00271627)
(0.00890222 -0.181561 -0.0028919)
(0.00945614 -0.17519 -0.00298705)
(0.00992358 -0.167039 -0.0029461)
(0.0102773 -0.157408 -0.00279364)
(0.010523 -0.146791 -0.00238434)
(0.0106789 -0.135552 -0.00178557)
(0.01082 -0.123777 -0.000907703)
(0.0109106 -0.11159 -1.26289e-05)
(0.0109755 -0.0989874 0.000962285)
(0.0110129 -0.0859814 0.00199621)
(0.011035 -0.0725793 0.00307844)
(0.0110462 -0.0587585 0.00423261)
(0.0110301 -0.0443918 0.00555021)
(0.0109885 -0.0292297 0.00715301)
(0.0108718 -0.0129599 0.00887076)
(0.0105981 0.00420691 0.00999851)
(0.0102312 0.0166236 0.0100082)
(0.00966816 0.0319423 0.00884796)
(0.00892259 0.0488208 0.00673514)
(0.0079631 0.0689474 0.00451553)
(0.00676203 0.0951939 0.00366948)
(0.00517393 0.127166 0.00501766)
(0.00332142 0.152306 0.00680676)
(0.00146896 0.156927 0.00690212)
(0.000114803 0.106596 0.00366714)
(7.63664e-05 -0.0471234 4.93337e-05)
(0.000849381 -0.114425 -0.000850388)
(0.00205843 -0.155188 -0.00185164)
(0.00335712 -0.17668 -0.0027498)
(0.00456089 -0.187117 -0.00347667)
(0.00564004 -0.192096 -0.00406347)
(0.0066329 -0.194027 -0.00456745)
(0.0074689 -0.19378 -0.00498139)
(0.00824095 -0.191649 -0.00539597)
(0.00887581 -0.187815 -0.00575974)
(0.00939466 -0.182408 -0.00605167)
(0.00980365 -0.175651 -0.00625712)
(0.0100409 -0.167262 -0.00619496)
(0.0101779 -0.157475 -0.00570006)
(0.0102478 -0.146775 -0.00489814)
(0.0103211 -0.135477 -0.00404597)
(0.0103205 -0.123731 -0.00322071)
(0.0103138 -0.111529 -0.00218086)
(0.0102771 -0.0989591 -0.00103025)
(0.0102268 -0.0860293 0.000217211)
(0.0101593 -0.0726876 0.00154291)
(0.0100818 -0.0589392 0.00292769)
(0.00999659 -0.0447068 0.00434383)
(0.00987452 -0.0297187 0.00578983)
(0.00974175 -0.0135107 0.00736226)
(0.00952065 0.00376163 0.0088098)
(0.00926301 0.0168676 0.00944979)
(0.00878844 0.0332911 0.00927344)
(0.00813899 0.0517248 0.00809688)
(0.00722487 0.0737849 0.00624394)
(0.00601863 0.101988 0.00482613)
(0.00442031 0.135115 0.00496173)
(0.00271993 0.159791 0.00581098)
(0.00111242 0.16303 0.0056337)
(1.0855e-05 0.108343 0.00288291)
(3.52723e-05 -0.050027 -0.000202922)
(0.000814581 -0.120792 -0.000813999)
(0.00210993 -0.162906 -0.00133117)
(0.00352228 -0.184323 -0.00192276)
(0.00486654 -0.194239 -0.00256586)
(0.00610842 -0.198664 -0.0032205)
(0.00728019 -0.200046 -0.00389185)
(0.0082759 -0.199322 -0.00450113)
(0.0092095 -0.19663 -0.00517271)
(0.00996173 -0.192168 -0.00583787)
(0.0105627 -0.185873 -0.00646629)
(0.0110167 -0.177531 -0.00701678)
(0.0111852 -0.167769 -0.00708373)
(0.0112918 -0.157314 -0.00713904)
(0.0113095 -0.146319 -0.00717396)
(0.0112268 -0.134758 -0.00685231)
(0.0110957 -0.122757 -0.00617525)
(0.0109112 -0.110426 -0.0051647)
(0.0106865 -0.0978418 -0.00387497)
(0.0104418 -0.0850549 -0.00238366)
(0.0102001 -0.0719843 -0.00076257)
(0.00997307 -0.0585018 0.000926339)
(0.00975753 -0.0444802 0.00263756)
(0.00953632 -0.029663 0.00435409)
(0.00929158 -0.0136314 0.0060916)
(0.00898842 0.00352371 0.00771457)
(0.00868338 0.0170595 0.00860881)
(0.00821303 0.0344372 0.00899341)
(0.00757468 0.0543171 0.00852049)
(0.00669265 0.0781176 0.00722666)
(0.00556664 0.107924 0.00581884)
(0.00414357 0.141782 0.00531892)
(0.00263295 0.165863 0.00546447)
(0.00117584 0.16787 0.00496623)
(9.59915e-05 0.109901 0.00243079)
(8.42276e-05 -0.0525096 -0.000604327)
(0.00111075 -0.126587 -0.00129978)
(0.00267439 -0.170129 -0.00178682)
(0.00429739 -0.191554 -0.00241846)
(0.00581085 -0.201004 -0.00310307)
(0.00720537 -0.20483 -0.00379993)
(0.00851948 -0.205477 -0.00452846)
(0.0096142 -0.203974 -0.00522319)
(0.0106181 -0.200235 -0.00605836)
(0.0113682 -0.194575 -0.00696777)
(0.0119192 -0.186987 -0.00792554)
(0.0121477 -0.17744 -0.00865832)
(0.0123587 -0.167003 -0.00982318)
(0.0123365 -0.155756 -0.0107249)
(0.0122169 -0.143956 -0.0112345)
(0.0120019 -0.131827 -0.0112957)
(0.0117273 -0.119469 -0.0108748)
(0.011411 -0.106963 -0.00998754)
(0.0110604 -0.0944042 -0.0086961)
(0.0106933 -0.0818892 -0.0070963)
(0.0103312 -0.069299 -0.00526971)
(0.00999588 -0.0564381 -0.00328435)
(0.00969805 -0.0430148 -0.0011797)
(0.00943004 -0.0286098 0.00104233)
(0.00917031 -0.0128403 0.00339922)
(0.00887512 0.00401314 0.00573199)
(0.0085747 0.0176128 0.00718931)
(0.00812167 0.0355016 0.00825241)
(0.00753032 0.056477 0.00847596)
(0.00668818 0.0818386 0.0077364)
(0.00556681 0.113314 0.00649749)
(0.00407592 0.148411 0.00568421)
(0.00251715 0.172626 0.00539795)
(0.00104179 0.173748 0.00465219)
(1.44208e-05 0.112412 0.00217236)
(9.2613e-05 -0.0566552 -0.000550439)
(0.00122883 -0.135373 -0.000535593)
(0.00284858 -0.180047 -0.000546748)
(0.00447188 -0.200756 -0.00112663)
(0.00596402 -0.209249 -0.00196391)
(0.00740131 -0.212176 -0.00289098)
(0.00867651 -0.211936 -0.00376699)
(0.0098342 -0.209383 -0.00471062)
(0.0107944 -0.204413 -0.00579669)
(0.0114116 -0.197126 -0.00705203)
(0.0118849 -0.187463 -0.00842093)
(0.0120679 -0.176684 -0.0100375)
(0.0120476 -0.164773 -0.0114902)
(0.0118673 -0.152251 -0.0126993)
(0.0115748 -0.1396 -0.0135602)
(0.011236 -0.127029 -0.0139896)
(0.0108875 -0.114506 -0.0139378)
(0.0105391 -0.101974 -0.0133955)
(0.0101843 -0.0895074 -0.0124071)
(0.00982202 -0.0772543 -0.0110634)
(0.00945998 -0.0651256 -0.00944001)
(0.00911172 -0.0529023 -0.00759701)
(0.00879024 -0.0402503 -0.00555732)
(0.00850879 -0.0266859 -0.00328491)
(0.00826651 -0.0116419 -0.00071089)
(0.00804367 0.00468969 0.00202557)
(0.00778403 0.018548 0.00391897)
(0.00742472 0.0368288 0.00576195)
(0.00687393 0.0589018 0.00682242)
(0.00602309 0.0862304 0.00675299)
(0.00477389 0.120094 0.0058078)
(0.00311161 0.156616 0.00489207)
(0.0016448 0.179934 0.00436839)
(0.000475761 0.179301 0.00353184)
(-0.000183552 0.11346 0.00133828)
(0.000133858 -0.0605507 -0.000384703)
(0.00129874 -0.14313 0.00022758)
(0.00278324 -0.188627 0.000572664)
(0.00420688 -0.208778 0.000106959)
(0.00550224 -0.216512 -0.000743991)
(0.00676351 -0.218621 -0.00174565)
(0.00784775 -0.217478 -0.00271553)
(0.00889059 -0.213416 -0.00388253)
(0.00941215 -0.206816 -0.00516773)
(0.0100627 -0.197349 -0.00689381)
(0.0101684 -0.18631 -0.0087834)
(0.0101803 -0.173703 -0.0106708)
(0.00995849 -0.160298 -0.0124202)
(0.00962315 -0.14686 -0.0138687)
(0.00925698 -0.133803 -0.0149179)
(0.00890791 -0.121188 -0.0155296)
(0.00859861 -0.10884 -0.0156895)
(0.00832954 -0.0965126 -0.0153842)
(0.00808176 -0.0842375 -0.0146515)
(0.00783303 -0.0722056 -0.0135723)
(0.00757599 -0.060383 -0.0122051)
(0.00731342 -0.0485595 -0.0105869)
(0.00705155 -0.03643 -0.00872645)
(0.00680495 -0.0235724 -0.00657977)
(0.00657562 -0.00926863 -0.00403576)
(0.00636354 0.00623925 -0.00109159)
(0.00615806 0.0202722 0.00145697)
(0.00574975 0.0391942 0.00393931)
(0.00524079 0.0627213 0.00585396)
(0.00450563 0.0922013 0.00651311)
(0.00353235 0.127871 0.00576127)
(0.00235157 0.164087 0.00451079)
(0.00132952 0.185039 0.00361386)
(0.000462052 0.182364 0.00264626)
(-8.3202e-05 0.113386 0.000900459)
(0.000141592 -0.065262 5.13207e-05)
(0.00111586 -0.151524 0.0014816)
(0.00221001 -0.196961 0.00226283)
(0.00319528 -0.215937 0.00198545)
(0.00409176 -0.222648 0.00121839)
(0.00496507 -0.223772 0.000224676)
(0.00573896 -0.221468 -0.000861935)
(0.00633623 -0.215822 -0.00225938)
(0.00696841 -0.207135 -0.00401617)
(0.00709632 -0.19633 -0.0058269)
(0.0072309 -0.183275 -0.0079561)
(0.00708341 -0.168951 -0.0102163)
(0.00683558 -0.15449 -0.0123413)
(0.00655634 -0.140653 -0.0141156)
(0.00630175 -0.127664 -0.0154309)
(0.00610064 -0.115361 -0.0162674)
(0.00595976 -0.103415 -0.0166429)
(0.00587583 -0.091498 -0.016576)
(0.00583037 -0.079494 -0.0160985)
(0.00579175 -0.0676499 -0.0153024)
(0.00574691 -0.0560476 -0.0142529)
(0.00569706 -0.0445094 -0.0129732)
(0.00564688 -0.0327625 -0.0114605)
(0.00560207 -0.0204414 -0.00966285)
(0.00557527 -0.00682023 -0.00742043)
(0.00557082 0.00804068 -0.00482172)
(0.00551247 0.0221198 -0.00248034)
(0.00530389 0.0409814 0.000359243)
(0.00493401 0.0646569 0.00321624)
(0.00441088 0.0945159 0.00535803)
(0.00376449 0.130831 0.00603576)
(0.00284309 0.167837 0.00540564)
(0.00177895 0.189231 0.00441677)
(0.000778903 0.186194 0.00313578)
(-1.07159e-06 0.114558 0.000958376)
(0.00010136 -0.0685561 0.000668939)
(0.000648459 -0.156708 0.0027789)
(0.00117199 -0.201688 0.0038938)
(0.0016333 -0.219838 0.00382317)
(0.00208154 -0.225907 0.00319683)
(0.00254658 -0.226398 0.00229966)
(0.00297338 -0.223253 0.00122755)
(0.00339224 -0.216698 -9.53076e-05)
(0.00362543 -0.207075 -0.00157299)
(0.00386696 -0.19449 -0.00359029)
(0.0039772 -0.17994 -0.00603628)
(0.00404171 -0.164655 -0.0086856)
(0.00403156 -0.149698 -0.0111422)
(0.00401715 -0.135741 -0.0132227)
(0.00400772 -0.12289 -0.0148116)
(0.00402072 -0.110877 -0.0158914)
(0.00406741 -0.0993003 -0.0164922)
(0.00415127 -0.0877847 -0.01665)
(0.00427034 -0.0760881 -0.0163901)
(0.00439961 -0.0644663 -0.0158109)
(0.00452406 -0.0531119 -0.0149972)
(0.00464472 -0.0418841 -0.0139745)
(0.00476231 -0.0305459 -0.0127463)
(0.00487738 -0.0187729 -0.0112847)
(0.00500921 -0.00580429 -0.00946113)
(0.00523151 0.00844846 -0.00734599)
(0.00542885 0.0225464 -0.00532476)
(0.00548152 0.0416953 -0.00287264)
(0.00526592 0.0661569 -0.000265052)
(0.00460854 0.0974209 0.00211041)
(0.00352271 0.135792 0.00371542)
(0.00208477 0.174692 0.00414644)
(0.000902301 0.19576 0.00368386)
(0.000107555 0.191192 0.00254223)
(-0.000227843 0.115392 0.000354553)
(5.98126e-05 -0.0705303 0.00114099)
(0.000295564 -0.159818 0.00377199)
(0.000461333 -0.204497 0.0052563)
(0.000607224 -0.222114 0.00548608)
(0.000782044 -0.22784 0.00509428)
(0.00100621 -0.227966 0.00437418)
(0.00127246 -0.224255 0.0033771)
(0.00147347 -0.217039 0.00198672)
(0.00184381 -0.206652 6.99113e-06)
(0.00208672 -0.193713 -0.00195869)
(0.00232249 -0.178785 -0.00391117)
(0.00257455 -0.1628 -0.00625705)
(0.00283206 -0.14715 -0.00894268)
(0.00300569 -0.13261 -0.0113471)
(0.00312178 -0.11937 -0.0133013)
(0.00319951 -0.107193 -0.014729)
(0.00326518 -0.0956499 -0.0156448)
(0.00333747 -0.084296 -0.0160884)
(0.00342886 -0.0728219 -0.016096)
(0.00352768 -0.0613422 -0.0157487)
(0.00361246 -0.0501315 -0.0151518)
(0.00368081 -0.0390632 -0.0143327)
(0.00372653 -0.0278973 -0.0132891)
(0.00373963 -0.0163636 -0.0119918)
(0.00374393 -0.00394363 -0.0103481)
(0.00379853 0.00872758 -0.00854009)
(0.00383869 0.0238951 -0.00635511)
(0.00372552 0.0441593 -0.00368943)
(0.00343552 0.0709704 -0.000988443)
(0.00275207 0.105351 0.00103661)
(0.00161905 0.14548 0.00194689)
(0.000509052 0.182503 0.00193565)
(-2.04106e-05 0.199628 0.00150113)
(-0.000255778 0.192232 0.000762572)
(-0.00016675 0.114063 -0.000109558)
(1.86202e-05 -0.0715623 0.00152957)
(0.000139926 -0.161656 0.00456118)
(0.000182493 -0.206264 0.00637657)
(0.000218631 -0.223604 0.00691168)
(0.000286575 -0.229176 0.00676511)
(0.000407536 -0.229229 0.00622176)
(0.000585199 -0.22541 0.00531221)
(0.000835417 -0.218063 0.00398513)
(0.00113581 -0.207472 0.002254)
(0.00150497 -0.194121 0.000123755)
(0.00192974 -0.178806 -0.0022867)
(0.00233568 -0.162506 -0.00459175)
(0.00268836 -0.146087 -0.00656072)
(0.00298862 -0.130432 -0.00889841)
(0.00318342 -0.116268 -0.0111821)
(0.00329281 -0.103488 -0.0129669)
(0.00335469 -0.0916584 -0.0142326)
(0.00340275 -0.0802571 -0.0150059)
(0.00345808 -0.068881 -0.0153268)
(0.003522 -0.0574413 -0.0152562)
(0.00357171 -0.0462485 -0.0149193)
(0.00360698 -0.0351915 -0.0143605)
(0.0036219 -0.0240492 -0.013599)
(0.00360377 -0.0126019 -0.0126293)
(0.00355386 -0.000419008 -0.011361)
(0.00346656 0.0120077 -0.00983727)
(0.00326751 0.0276309 -0.00764832)
(0.00294502 0.0476315 -0.0047048)
(0.00265141 0.0743078 -0.00124012)
(0.00238247 0.109086 0.00175215)
(0.00203642 0.149205 0.00302888)
(0.00163146 0.184518 0.00276911)
(0.00118675 0.200165 0.00206945)
(0.000628259 0.192514 0.00124345)
(0.000107795 0.113902 0.000296029)
(1.8537e-05 -0.0728197 0.00176267)
(0.000110474 -0.164156 0.00510292)
(9.72346e-05 -0.20885 0.00719001)
(8.26765e-05 -0.225894 0.00801899)
(9.79052e-05 -0.231224 0.00816986)
(0.000154459 -0.231111 0.00795408)
(0.000258741 -0.227202 0.00744487)
(0.000418425 -0.219927 0.00662299)
(0.000657935 -0.209463 0.0053929)
(0.000995119 -0.196061 0.00360802)
(0.00142816 -0.180322 0.00121113)
(0.0019127 -0.163232 -0.00163826)
(0.00241538 -0.145948 -0.00465328)
(0.00284666 -0.129464 -0.00713959)
(0.0031623 -0.114188 -0.00923651)
(0.00341022 -0.100528 -0.0113178)
(0.00356131 -0.0882102 -0.0128879)
(0.00368439 -0.0766504 -0.0139503)
(0.00380508 -0.0653171 -0.0145525)
(0.00394212 -0.0539395 -0.0147376)
(0.00408253 -0.0428358 -0.0146396)
(0.00423152 -0.0319021 -0.0143174)
(0.00438823 -0.0209049 -0.0138148)
(0.00454674 -0.00956201 -0.0131598)
(0.00470554 0.00260626 -0.0123011)
(0.00481596 0.0149675 -0.0112999)
(0.00481781 0.0308014 -0.00980422)
(0.00462007 0.0504061 -0.00760864)
(0.00431904 0.0756761 -0.00447235)
(0.00410902 0.10942 -0.000827466)
(0.00384515 0.14967 0.0023624)
(0.00310766 0.187201 0.00382762)
(0.00202979 0.205482 0.00361563)
(0.00103678 0.198141 0.00262292)
(0.000104295 0.116965 0.000755948)
(3.24323e-05 -0.0740088 0.00201843)
(4.32494e-05 -0.166072 0.00559062)
(-0.000112737 -0.210837 0.0079032)
(-0.000254282 -0.227805 0.0090387)
(-0.000351271 -0.233008 0.00950928)
(-0.000404552 -0.232783 0.00962036)
(-0.000409035 -0.228765 0.00942837)
(-0.000363715 -0.22148 0.00889259)
(-0.000246643 -0.211214 0.00793621)
(-2.10991e-05 -0.19821 0.006467)
(0.000351249 -0.182797 0.00439533)
(0.00087315 -0.165606 0.00171149)
(0.00147103 -0.147593 -0.001428)
(0.00207298 -0.129923 -0.0046655)
(0.00262185 -0.113589 -0.007453)
(0.00296484 -0.0988588 -0.0094855)
(0.0032781 -0.0857676 -0.0113943)
(0.00346563 -0.0738304 -0.0127609)
(0.00363227 -0.0624217 -0.0136253)
(0.00380406 -0.0511522 -0.0140457)
(0.00397991 -0.040222 -0.0141499)
(0.00416791 -0.0295227 -0.0140014)
(0.00437187 -0.0188334 -0.0136496)
(0.00458603 -0.00783526 -0.0131301)
(0.00480819 0.004086 -0.0124096)
(0.0050047 0.0165729 -0.0115893)
(0.00516205 0.0329642 -0.0104913)
(0.00516777 0.0536716 -0.00906386)
(0.00476519 0.0802271 -0.00704487)
(0.00388687 0.114443 -0.00396329)
(0.0028206 0.156346 -0.000664225)
(0.00149454 0.195715 0.00132512)
(0.00051814 0.212525 0.00165197)
(-1.6709e-05 0.203352 0.000883272)
(-0.000252121 0.118476 -0.000135746)
(7.04041e-07 -0.0750625 0.00219476)
(-9.64369e-05 -0.167758 0.00573298)
(-0.000375454 -0.212552 0.0080567)
(-0.000645996 -0.229534 0.00939419)
(-0.000861226 -0.234727 0.0101256)
(-0.00102557 -0.234504 0.0105126)
(-0.00112973 -0.230471 0.010606)
(-0.00117181 -0.223211 0.0103905)
(-0.00113745 -0.2131 0.00981985)
(-0.000999552 -0.200468 0.00881445)
(-0.000720995 -0.185622 0.00727507)
(-0.000272603 -0.168875 0.00510502)
(0.000338013 -0.150766 0.00228824)
(0.00102641 -0.132242 -0.000998307)
(0.00167047 -0.114475 -0.00435055)
(0.00223245 -0.0983734 -0.00729685)
(0.00255754 -0.0840119 -0.00933636)
(0.0028067 -0.0712676 -0.011121)
(0.0029457 -0.0594721 -0.0123488)
(0.00305767 -0.0480964 -0.013073)
(0.00314865 -0.0371519 -0.0134204)
(0.0032228 -0.0265297 -0.013475)
(0.00326675 -0.0159946 -0.01329)
(0.0032734 -0.00487781 -0.012811)
(0.00326269 0.00679778 -0.0120565)
(0.00320431 0.0196366 -0.0110278)
(0.00306696 0.0363253 -0.00958018)
(0.00289836 0.0583916 -0.0078158)
(0.00256432 0.087738 -0.00594153)
(0.00176403 0.125034 -0.00408626)
(0.000474206 0.167042 -0.00235461)
(-0.000312682 0.202153 -0.00116232)
(-0.000532296 0.215004 -0.000731484)
(-0.00033446 0.20325 -0.000222211)
(-0.000304211 0.116651 -0.000532737)
(-1.94724e-05 -0.075559 0.00228932)
(-0.000185592 -0.168656 0.00565031)
(-0.000545778 -0.213533 0.00777428)
(-0.000894746 -0.230615 0.00909201)
(-0.00118529 -0.235915 0.00993324)
(-0.00142256 -0.235823 0.0105086)
(-0.00159243 -0.231948 0.0108551)
(-0.00168808 -0.224908 0.0109594)
(-0.00169672 -0.215111 0.0107817)
(-0.00160017 -0.20291 0.0102507)
(-0.00137533 -0.188639 0.00927597)
(-0.000995464 -0.172562 0.00775892)
(-0.000436511 -0.154906 0.00560227)
(0.000280101 -0.136104 0.00276742)
(0.00105864 -0.117124 -0.000594626)
(0.00176765 -0.0992236 -0.00405507)
(0.00230772 -0.0833089 -0.00706634)
(0.00266617 -0.0692118 -0.00910362)
(0.0028687 -0.0565411 -0.0107675)
(0.0029962 -0.044755 -0.011923)
(0.00308571 -0.0335141 -0.0126052)
(0.00314034 -0.0225751 -0.0129426)
(0.00314358 -0.0116585 -0.0130104)
(0.00309408 -0.00035629 -0.012783)
(0.00300325 0.0111674 -0.0122549)
(0.00280495 0.0249036 -0.0112697)
(0.00244239 0.0416203 -0.00968691)
(0.00205187 0.0632224 -0.00740885)
(0.00179683 0.0922684 -0.00465206)
(0.00157604 0.129576 -0.00214077)
(0.00136147 0.170603 -0.000659294)
(0.00115707 0.203042 -0.000118226)
(0.000968446 0.215259 8.84338e-05)
(0.000542908 0.203356 8.18435e-05)
(0.00024922 0.116398 3.09803e-05)
(-1.69079e-05 -0.0760925 0.00236088)
(-0.000191571 -0.169566 0.00552976)
(-0.000590919 -0.214531 0.00736576)
(-0.000978004 -0.23171 0.00850677)
(-0.00130543 -0.23717 0.00930897)
(-0.00157783 -0.237256 0.00994709)
(-0.00178729 -0.233609 0.0104823)
(-0.00191737 -0.226872 0.010887)
(-0.00195862 -0.217462 0.0111129)
(-0.00189226 -0.205727 0.0110756)
(-0.0016995 -0.191997 0.0106647)
(-0.0013616 -0.176561 0.00976556)
(-0.000857372 -0.159629 0.00827366)
(-0.000170713 -0.14136 0.00610772)
(0.000680628 -0.122116 0.00326243)
(0.00158599 -0.102826 -7.7558e-05)
(0.00240069 -0.0847829 -0.00351861)
(0.00300258 -0.0688806 -0.00660232)
(0.00342569 -0.0550356 -0.00874444)
(0.00371007 -0.0424767 -0.0104156)
(0.00392468 -0.0308387 -0.011557)
(0.00411022 -0.0196925 -0.0122779)
(0.00427891 -0.00857555 -0.0126902)
(0.00443862 0.00299926 -0.0128206)
(0.00455297 0.0147058 -0.0126966)
(0.00457868 0.0290921 -0.0122423)
(0.00443474 0.0461523 -0.0113165)
(0.00410624 0.0669713 -0.00963762)
(0.00387878 0.0939547 -0.00694047)
(0.00380496 0.129891 -0.00367085)
(0.00364579 0.170981 -0.000616891)
(0.00313059 0.205226 0.00138614)
(0.00206426 0.219167 0.00165109)
(0.00118442 0.208309 0.00133564)
(0.0003038 0.120094 0.000619136)
(1.65582e-07 -0.0767246 0.0024506)
(-0.000205147 -0.170356 0.0054706)
(-0.000649734 -0.215084 0.00712715)
(-0.00111664 -0.232498 0.00810886)
(-0.00150204 -0.238131 0.00889011)
(-0.00182583 -0.238413 0.00955115)
(-0.00208646 -0.235052 0.0101822)
(-0.00226405 -0.228705 0.0107647)
(-0.0023477 -0.219802 0.0112599)
(-0.00232132 -0.208684 0.0115946)
(-0.00216994 -0.195641 0.0116637)
(-0.00187762 -0.180927 0.0113413)
(-0.00143172 -0.164739 0.0104976)
(-0.000813707 -0.147208 0.00901188)
(-1.61939e-05 -0.128464 0.00679411)
(0.000944476 -0.108885 0.00385418)
(0.00195403 -0.0894121 0.0004287)
(0.00283741 -0.0713441 -0.00302433)
(0.00350942 -0.0554704 -0.00607675)
(0.00393944 -0.0417294 -0.00817947)
(0.00425545 -0.0294139 -0.00984818)
(0.00446552 -0.0180021 -0.0109855)
(0.00465198 -0.00683776 -0.0117163)
(0.00486614 0.00474688 -0.0121066)
(0.00506256 0.0165861 -0.012222)
(0.005204 0.0314555 -0.0121235)
(0.00523859 0.049444 -0.0117984)
(0.00500719 0.0715355 -0.0110902)
(0.00418702 0.0993732 -0.00954657)
(0.00324189 0.134624 -0.00656839)
(0.00283524 0.176596 -0.00306392)
(0.00190011 0.213518 -0.00077033)
(0.000831144 0.227182 -2.7749e-05)
(0.000183457 0.214669 -8.81416e-05)
(-0.000213163 0.122546 -0.000275709)
(-1.16904e-05 -0.0772719 0.00248696)
(-0.000272893 -0.170649 0.00521404)
(-0.000772829 -0.215259 0.00663702)
(-0.00125695 -0.232667 0.00760672)
(-0.00172649 -0.238834 0.00827931)
(-0.00210849 -0.239418 0.00908191)
(-0.00244184 -0.236403 0.00991037)
(-0.00269116 -0.230488 0.0107348)
(-0.00285018 -0.222115 0.0115176)
(-0.00290167 -0.211623 0.0121943)
(-0.00282877 -0.199272 0.0126716)
(-0.00262078 -0.185282 0.0128369)
(-0.00226795 -0.169831 0.0125689)
(-0.00176067 -0.15304 0.0117443)
(-0.00108583 -0.134973 0.0102426)
(-0.00024227 -0.115734 0.00796597)