/*--------------------------------*- C++ -*----------------------------------*\
| =========                 |                                                 |
| \\      /  F ield         | OpenFOAM: The Open Source CFD Toolbox           |
|  \\    /   O peration     | Version:  2.0.x                                 |
|   \\  /    A nd           | Web:      www.OpenFOAM.org                      |
|    \\/     M anipulation  |                                                 |
\*---------------------------------------------------------------------------*/
FoamFile
{
    version     2.0;
    format      ascii;
    class       volScalarField;
    location    "600";
    object      k;
}
// * * * * * * * * * * * * * * * * * * * * * * * * * * * * * * * * * * * * * //

dimensions      [0 2 -2 0 0 0 0];

internalField   nonuniform List<scalar> 
78750
(
0.000137811
0.000496091
0.000585426
0.000610328
0.000629957
0.000659238
0.000692754
0.000719892
0.000743214
0.000763724
0.000781478
0.000796628
0.000809404
0.000819873
0.000828411
0.000835049
0.000839896
0.000843162
0.00084417
0.000845963
0.000848103
0.000848595
0.000848034
0.000844636
0.000838986
0.000831492
0.000822441
0.000812059
0.000800001
0.000786846
0.000772042
0.000754398
0.000732517
0.000651769
0.000158294
0.000121039
0.000333344
0.000402856
0.000428456
0.000505272
0.000601182
0.000680939
0.000751701
0.00081326
0.000865412
0.00090897
0.000944401
0.000972629
0.000994205
0.00100973
0.00101966
0.00102488
0.00102503
0.00102178
0.00101206
0.000996977
0.000978088
0.00095693
0.000935789
0.00091433
0.000893286
0.000872926
0.00085255
0.000830349
0.000807231
0.000783473
0.000756612
0.000723594
0.000628085
0.00033958
2.8027e-05
0.000137873
0.000234646
0.000354465
0.000504302
0.000641373
0.000754561
0.000842493
0.000910221
0.000962025
0.00100155
0.00103089
0.00105153
0.00106453
0.00107075
0.00107066
0.00106687
0.00105713
0.00104292
0.00102506
0.00100441
0.0009814
0.000956175
0.000928746
0.000899065
0.00086725
0.000835186
0.000801839
0.000771306
0.000747454
0.000731016
0.000716
0.000671749
0.000583856
0.000405137
2.72363e-05
0.000228495
0.00043917
0.000638858
0.000775229
0.000872489
0.000945038
0.000999961
0.00104171
0.00107369
0.00109789
0.00111563
0.00112777
0.00113475
0.00113669
0.00113461
0.00112683
0.0011142
0.00109685
0.00107504
0.00104931
0.00101976
0.000986005
0.00094845
0.000907734
0.000865474
0.000822584
0.000777968
0.000735783
0.000701177
0.000676175
0.00065725
0.000618267
0.000545892
0.000409795
3.45087e-05
0.000287032
0.000508855
0.000675427
0.000798731
0.000888251
0.000956826
0.00101185
0.00105707
0.00109451
0.00112515
0.00114927
0.00116684
0.00117777
0.00118203
0.0011803
0.00117183
0.00115723
0.00113677
0.00111079
0.00107982
0.00104482
0.00100619
0.000963755
0.000917445
0.000868249
0.000817671
0.00076492
0.000713796
0.000670239
0.000635965
0.000611027
0.000574683
0.000513632
0.000399451
6.73786e-05
0.000348441
0.00058578
0.000759815
0.000879006
0.000965627
0.00103246
0.00108611
0.00112989
0.00116545
0.0011936
0.00121479
0.00122934
0.00123749
0.00123938
0.00123599
0.00122603
0.00121023
0.00118866
0.00116148
0.00112895
0.00109171
0.00105019
0.00100442
0.000954351
0.000900402
0.000843934
0.000784643
0.000724263
0.000668599
0.000619532
0.000580863
0.000541384
0.000484923
0.000380383
8.13764e-05
0.000370735
0.000601908
0.000768459
0.000886193
0.000973471
0.00104208
0.00109858
0.001146
0.00118577
0.00121864
0.00124491
0.00126449
0.00127732
0.00128339
0.00128269
0.00127496
0.00126031
0.0012389
0.00121106
0.00117729
0.0011383
0.00109518
0.00104782
0.000995945
0.000940002
0.000882035
0.000822503
0.000757685
0.000688964
0.000624243
0.0005689
0.000518664
0.000462296
0.000368231
0.000101351
0.000397105
0.000638465
0.000813893
0.000936925
0.00102717
0.00109741
0.00115483
0.00120267
0.00124264
0.00127563
0.00130184
0.00132128
0.00133384
0.00133933
0.00133797
0.00132922
0.00131303
0.00129013
0.00126076
0.00122546
0.00118485
0.00113986
0.00109054
0.00103676
0.00097898
0.000918794
0.000855913
0.000786294
0.000711399
0.000637868
0.000569329
0.000507945
0.000450013
0.000366114
0.000113293
0.000414257
0.000654042
0.000828148
0.000952301
0.0010443
0.00111642
0.00117604
0.00122646
0.00126944
0.00130551
0.00133481
0.00135737
0.00137314
0.0013819
0.00138309
0.00137794
0.00136338
0.00134059
0.00131042
0.00127398
0.00123154
0.00118418
0.00113221
0.00107569
0.00101509
0.00095163
0.000884512
0.000809729
0.000729387
0.000649174
0.000570859
0.000502197
0.000441881
0.0003651
0.000127722
0.000440468
0.000695509
0.000878868
0.00100572
0.00109685
0.00116828
0.00122746
0.00127765
0.00132031
0.00135577
0.00138423
0.00140585
0.00142073
0.00142883
0.00143007
0.00142556
0.00141312
0.00139284
0.00136392
0.00132608
0.00128002
0.00122846
0.0011724
0.00111208
0.00104795
0.000979953
0.000905335
0.000824139
0.000743283
0.000661764
0.00057828
0.000502902
0.000441547
0.000368211
0.000140142
0.000460709
0.000719169
0.000902594
0.00102897
0.00112005
0.00119257
0.00125339
0.00130565
0.0013501
0.00138711
0.00141694
0.00143983
0.00145575
0.00146469
0.00146675
0.00146305
0.00145156
0.0014324
0.00140496
0.00136903
0.00132475
0.00127213
0.00121158
0.00114574
0.00107576
0.00100152
0.000921238
0.000836845
0.000753306
0.000667858
0.000581113
0.00050404
0.000441879
0.000373272
0.00015608
0.000493499
0.000765636
0.000953968
0.00107839
0.0011678
0.00123912
0.00129922
0.00135066
0.0013942
0.00143031
0.00145933
0.0014814
0.00149672
0.00150552
0.00150766
0.00150396
0.0014923
0.00147296
0.0014456
0.00141033
0.00136765
0.00131709
0.00125837
0.00119138
0.00111649
0.0010359
0.000949245
0.000859825
0.000771473
0.000680003
0.000588292
0.000509033
0.000445725
0.000377828
0.000169586
0.000515307
0.000791112
0.000978687
0.00110119
0.00119048
0.00126252
0.00132391
0.00137635
0.00142075
0.00145775
0.00148758
0.00151036
0.00152615
0.0015349
0.00153647
0.00153198
0.00151944
0.00149944
0.00147187
0.00143718
0.00139568
0.00134687
0.00129052
0.0012263
0.00115349
0.00107026
0.000974939
0.000877734
0.000782512
0.000685646
0.0005915
0.000512833
0.000449262
0.000379681
0.000186308
0.000549869
0.000835671
0.00102298
0.00114342
0.00123067
0.00130121
0.00136112
0.00141226
0.0014558
0.00149217
0.00152155
0.00154406
0.00155972
0.00156831
0.00156969
0.00156495
0.00155229
0.00153238
0.0015051
0.00147105
0.0014302
0.00138247
0.00132759
0.001265
0.00119368
0.00111061
0.00101422
0.000910107
0.000803378
0.000696305
0.000597102
0.000518217
0.000453503
0.000379384
0.000199218
0.000571601
0.000860259
0.00104534
0.00116409
0.00125059
0.00132116
0.00138105
0.00143245
0.00147647
0.00151356
0.00154387
0.00156737
0.00158373
0.00159269
0.00159415
0.00158919
0.00157646
0.00155677
0.00153014
0.00149674
0.00145655
0.00140978
0.00135612
0.00129487
0.00122497
0.00114452
0.00105337
0.000950353
0.000830449
0.000707347
0.000601071
0.000522168
0.000455921
0.000375723
0.000214076
0.000604252
0.000900063
0.00108334
0.00119875
0.00128226
0.00135044
0.00140832
0.00145833
0.00150175
0.00153907
0.00157027
0.00159498
0.00161268
0.00162299
0.0016258
0.00162181
0.00161026
0.00159178
0.00156653
0.00153395
0.00149443
0.00144858
0.00139642
0.00133761
0.00127081
0.00119324
0.00110407
0.000999971
0.000872325
0.000730134
0.000610516
0.000527944
0.000459397
0.000375637
0.000224387
0.000624638
0.000922366
0.00110341
0.00121652
0.00129846
0.00136516
0.00142208
0.00147193
0.00151605
0.001555
0.00158842
0.00161544
0.00163522
0.00164732
0.00165166
0.00164881
0.00163855
0.00162149
0.00159726
0.00156536
0.00152645
0.00148141
0.00143032
0.00137288
0.00130826
0.00123563
0.0011518
0.00104779
0.000915964
0.000763764
0.000625656
0.000536421
0.000464548
0.000377788
0.000236453
0.000655851
0.0009586
0.00113617
0.00124433
0.00132206
0.00138513
0.00143943
0.00148816
0.00153283
0.00157376
0.00161
0.00164009
0.00166284
0.00167763
0.00168441
0.00168352
0.00167522
0.00165981
0.00163643
0.00160482
0.00156587
0.00152075
0.00146989
0.0014133
0.00135031
0.00127984
0.00119761
0.00109383
0.000960366
0.000802037
0.000650866
0.000550077
0.000473024
0.00038333
0.000245468
0.000678458
0.000983222
0.00115666
0.00126025
0.00133412
0.00139391
0.00144605
0.00149437
0.0015407
0.00158531
0.00162605
0.00166044
0.00168683
0.00170463
0.00171396
0.00171525
0.00170949
0.00169554
0.00167315
0.00164218
0.00160344
0.00155821
0.00150736
0.00145117
0.00138964
0.00132041
0.00123687
0.00113112
0.000996992
0.000836551
0.000678762
0.00056957
0.000485075
0.00038814
0.000257137
0.000711988
0.00102073
0.00118797
0.0012844
0.00135183
0.00140587
0.00145359
0.00149964
0.0015487
0.00159839
0.00164492
0.00168456
0.00171536
0.00173673
0.001749
0.00175289
0.00174908
0.00173669
0.00171552
0.00168541
0.00164692
0.0016014
0.00154992
0.00149291
0.00143017
0.00135877
0.00127187
0.00116236
0.00102528
0.000863204
0.000703366
0.000590041
0.000498756
0.000392693
0.000272255
0.000742777
0.00105256
0.00121305
0.00130278
0.00136381
0.00141194
0.00145535
0.00149946
0.00155099
0.00160682
0.00166063
0.00170609
0.00174185
0.00176731
0.00178278
0.00178931
0.00178721
0.00177624
0.00175636
0.00172746
0.00168987
0.00164485
0.00159366
0.00153717
0.00147389
0.00139912
0.00130728
0.00119294
0.00105163
0.000887534
0.000726442
0.000611057
0.000514239
0.000397976
0.000303743
0.00079046
0.00109666
0.00124744
0.00132895
0.00138233
0.00142228
0.00145653
0.00149883
0.00155037
0.00160923
0.00166849
0.00172348
0.00176723
0.00179875
0.0018185
0.00182712
0.00182656
0.00181669
0.00179757
0.00176943
0.00173275
0.00168866
0.00163816
0.00158159
0.00151688
0.00143911
0.00134287
0.00122319
0.00107689
0.000910153
0.00074778
0.000630891
0.000529505
0.000403123
0.00035437
0.000844353
0.0011365
0.00127521
0.00135088
0.00139868
0.00143
0.00145488
0.00149011
0.00154195
0.00160543
0.00166855
0.00172447
0.0017715
0.00180864
0.00183633
0.00185408
0.00185902
0.00185253
0.00183506
0.00180852
0.00177349
0.0017311
0.00168209
0.00162581
0.00155949
0.00147889
0.00137904
0.00125483
0.00110384
0.000934036
0.00076995
0.000651269
0.000545107
0.000405854
0.000418191
0.000895109
0.00116629
0.00129759
0.00137161
0.00141775
0.00144081
0.00144927
0.00146579
0.00150322
0.00156451
0.0016318
0.0016969
0.00175419
0.00180085
0.00183529
0.0018579
0.00186828
0.00186829
0.0018583
0.00183727
0.00180623
0.00176661
0.00171941
0.00166345
0.00159619
0.0015137
0.00141096
0.00128312
0.00112856
0.000956484
0.000791232
0.00067055
0.000559071
0.00040513
0.000446161
0.000899445
0.00116843
0.00130471
0.00138516
0.00143795
0.0014624
0.00146369
0.00145988
0.00147143
0.00149375
0.0015425
0.00160677
0.00167241
0.00173411
0.00178607
0.00182539
0.00185092
0.00186169
0.00185992
0.0018463
0.00182205
0.00178846
0.00174526
0.00169118
0.0016241
0.00154057
0.00143595
0.00130606
0.00115008
0.000977303
0.000812406
0.000689455
0.00057109
0.000398344
0.000446593
0.000895009
0.00116626
0.00130564
0.00139645
0.00146094
0.00149762
0.00150428
0.00149149
0.00147268
0.0014689
0.00147737
0.00149984
0.00154584
0.00160941
0.00167136
0.00172731
0.00177228
0.00180382
0.00182055
0.00182317
0.00181251
0.00178944
0.00175369
0.00170482
0.00164151
0.00156024
0.00145636
0.00132619
0.00116992
0.000997147
0.000833185
0.000707662
0.000582162
0.000392793
0.000428439
0.000860723
0.00114409
0.00129865
0.00139724
0.00147328
0.00152847
0.00155582
0.00155953
0.00154112
0.00150823
0.0014776
0.00146636
0.00147209
0.00148745
0.00152606
0.00158264
0.00163733
0.00168581
0.00172375
0.001748
0.00175709
0.00175159
0.00173103
0.00169403
0.001639
0.00156431
0.00146679
0.00134151
0.00118839
0.00101777
0.000855648
0.000727791
0.000595785
0.000393579
0.000382778
0.000809344
0.00110762
0.00127921
0.00139051
0.00147356
0.00154035
0.00159447
0.00162476
0.00163207
0.0016173
0.00158095
0.00153097
0.00148253
0.00145236
0.00144414
0.00145002
0.00147669
0.00151953
0.00157147
0.0016158
0.00164876
0.001667
0.00166938
0.00165366
0.00161741
0.00155627
0.00146576
0.0013485
0.00120236
0.00103577
0.000876382
0.000747309
0.000610178
0.000398034
0.000316796
0.000746473
0.0010577
0.00124687
0.00137063
0.00146463
0.00153986
0.0016022
0.00165578
0.00169239
0.00170742
0.00170525
0.00167907
0.00163024
0.00156491
0.00149613
0.00143897
0.0014033
0.00139343
0.00140377
0.00143556
0.00147868
0.00152081
0.00155193
0.00156621
0.00155797
0.00152168
0.00145367
0.00134807
0.00121193
0.00105341
0.000898603
0.000769324
0.000627999
0.000408407
0.000253892
0.000689986
0.00100981
0.00121251
0.00134659
0.00144733
0.00153143
0.0016041
0.00166699
0.00171964
0.00176039
0.00178546
0.00179185
0.00177809
0.001741
0.00168127
0.00160365
0.00151659
0.00143207
0.00136505
0.0013239
0.00131436
0.00133864
0.00138154
0.0014256
0.00145463
0.00145459
0.00141648
0.00133476
0.00121251
0.00106439
0.000916717
0.000789916
0.000647353
0.000426024
0.000205471
0.000647396
0.000980024
0.00120109
0.001341
0.00144322
0.00152796
0.00160327
0.00167382
0.00173853
0.0017951
0.0018399
0.00186857
0.00187744
0.00186544
0.00183226
0.00177789
0.00170492
0.00161661
0.00151804
0.00141826
0.00133059
0.00127366
0.00125407
0.00126498
0.0013029
0.00133832
0.00134314
0.00130347
0.00120795
0.00107375
0.000935319
0.000812436
0.000670887
0.000453658
0.000192329
0.000641478
0.000977904
0.00120156
0.00134712
0.00145296
0.00153973
0.00161765
0.00169225
0.00176587
0.0018364
0.00189809
0.00194435
0.00196949
0.00197062
0.00195112
0.00190669
0.00184218
0.00176173
0.0016683
0.00156415
0.00145269
0.00134911
0.00127408
0.00123247
0.00122303
0.00123368
0.00124882
0.00124163
0.00118241
0.00107242
0.000949192
0.000833731
0.000696661
0.000493123
0.000195849
0.000658667
0.00101577
0.00124802
0.0013944
0.00149525
0.00157688
0.00165278
0.00173091
0.0018145
0.00190007
0.00197831
0.00203988
0.00207796
0.00208851
0.00207421
0.00203239
0.00196855
0.00188644
0.00178876
0.00167628
0.00155081
0.00142787
0.00132657
0.00124896
0.00120342
0.00118707
0.00118723
0.00118302
0.0011453
0.00106429
0.000957651
0.00085318
0.000724669
0.000539484
0.000231541
0.000733824
0.0011054
0.00131847
0.00144539
0.00153543
0.00161149
0.00168878
0.00177744
0.00187903
0.00198526
0.00208461
0.0021644
0.00221562
0.00223385
0.00222156
0.00217841
0.00210876
0.00201655
0.0019063
0.00178045
0.00164048
0.00150023
0.00138053
0.00128308
0.00121158
0.0011713
0.00115413
0.0011437
0.00111484
0.0010506
0.000961824
0.000868933
0.000750195
0.000577068
0.00030242
0.000823972
0.00118145
0.00137062
0.00148128
0.00156405
0.00163905
0.00172274
0.00182769
0.00195314
0.00208535
0.00220579
0.00230204
0.00236566
0.00239573
0.00239246
0.00235375
0.00228003
0.00217446
0.00204155
0.00188592
0.00171939
0.00155628
0.00141747
0.00130571
0.00122153
0.00116839
0.00113886
0.00112049
0.001093
0.0010389
0.000962752
0.000881047
0.000771303
0.000599324
0.00042007
0.000930817
0.00125204
0.00141268
0.00150549
0.0015738
0.00164217
0.00172385
0.00183291
0.00196475
0.00210189
0.00222557
0.00232697
0.00240617
0.00245585
0.00247147
0.00245357
0.00240007
0.00231488
0.00219476
0.00203864
0.00184891
0.00164063
0.00145495
0.00131575
0.00122026
0.00116114
0.00112734
0.00110539
0.00107794
0.00102969
0.000963349
0.000890306
0.000785971
0.000598214
0.000512558
0.00096915
0.00126326
0.00141659
0.00150822
0.00157433
0.00163078
0.00169664
0.00180184
0.0019321
0.00207612
0.0022105
0.00232207
0.00240436
0.00246006
0.00248585
0.00248403
0.00245546
0.00239118
0.00228885
0.002153
0.00198333
0.00178155
0.00156158
0.0013609
0.0012256
0.00115093
0.00111386
0.00109056
0.00106338
0.00101974
0.000960908
0.000892772
0.000783777
0.00057499
0.000515753
0.000967739
0.00126263
0.00141617
0.00150884
0.00157415
0.00161911
0.00165188
0.00167852
0.0017477
0.0018741
0.00201996
0.00216745
0.00229503
0.00239232
0.00245481
0.0024792
0.00246838
0.00242618
0.00235392
0.00224208
0.00209556
0.00191552
0.00170334
0.00147491
0.00127537
0.001157
0.00110495
0.0010804
0.00105537
0.00101614
0.000961344
0.000894195
0.000781169
0.000543085
0.000489187
0.000932636
0.00123636
0.00140329
0.00150781
0.00158171
0.00162911
0.00165388
0.00166737
0.00168347
0.00170511
0.0017847
0.00192251
0.00207201
0.00220985
0.00231773
0.00239003
0.00242341
0.00241763
0.00237217
0.00229191
0.00217444
0.00201902
0.00182601
0.00160101
0.00137394
0.00120101
0.00111009
0.00107339
0.00104745
0.00101135
0.000961277
0.000893431
0.000774171
0.000523678
0.000441351
0.00088712
0.00120347
0.00138482
0.00149979
0.00158388
0.00164701
0.00168472
0.00169612
0.00169127
0.00168589
0.00169437
0.00172833
0.00183223
0.00198197
0.00212438
0.00223753
0.0023131
0.00234879
0.00234305
0.00229495
0.0022073
0.00208116
0.00191276
0.0017044
0.0014743
0.00127066
0.00114088
0.00107949
0.00104854
0.00101233
0.000962875
0.000893499
0.000767975
0.000516886
0.000398163
0.000849799
0.00117253
0.00136374
0.00148785
0.0015812
0.0016535
0.00170634
0.00173692
0.00174342
0.0017286
0.00169993
0.00167947
0.00168325
0.001744
0.00188693
0.00203407
0.00215194
0.00222885
0.00226389
0.0022558
0.00220358
0.0021076
0.00196634
0.00177998
0.00155824
0.00134206
0.0011863
0.00110386
0.00106046
0.00101927
0.000967795
0.000895574
0.000765396
0.000518016
0.000364415
0.000817774
0.00114468
0.0013448
0.00147611
0.00157601
0.00165423
0.00171378
0.0017548
0.00177626
0.00177916
0.00176195
0.00172556
0.00168271
0.00166135
0.00168689
0.00181476
0.00196532
0.00208133
0.00215342
0.00218242
0.00216827
0.0021079
0.00199994
0.00184254
0.00163724
0.00141491
0.00123462
0.00112824
0.00107158
0.00102559
0.000972544
0.000898984
0.000766655
0.000532169
0.000357074
0.000806087
0.00113138
0.00133506
0.00147134
0.00157586
0.00166006
0.00172625
0.00177382
0.00180227
0.00181146
0.00180299
0.00177684
0.00173364
0.00168166
0.00165324
0.0016833
0.00180944
0.00194787
0.00204856
0.0021062
0.0021231
0.00209924
0.00202824
0.00190449
0.00172487
0.00150993
0.00131112
0.00117538
0.00109682
0.0010398
0.000982324
0.000907355
0.000777157
0.00055723
0.000361211
0.000801296
0.00112256
0.00132959
0.00147072
0.00157989
0.00166896
0.00174148
0.0017959
0.00183031
0.00184386
0.00183671
0.00180965
0.00176596
0.00171347
0.0016719
0.00168105
0.0017843
0.00191742
0.00202052
0.00208207
0.00210667
0.00209643
0.00204463
0.00194339
0.00178765
0.00158724
0.0013826
0.00122486
0.00112554
0.0010568
0.00099402
0.000916243
0.000785864
0.000574156
0.000391067
0.000808704
0.00112208
0.0013288
0.00147192
0.00158421
0.00167943
0.00175756
0.00181707
0.00185739
0.00187556
0.00187072
0.00184178
0.00179045
0.00172853
0.00168773
0.00170663
0.00181534
0.00194399
0.00204059
0.00209615
0.0021184
0.00211014
0.00206611
0.00197741
0.001838
0.00165345
0.00145398
0.00128405
0.00116519
0.00108121
0.00100994
0.000927912
0.000796245
0.000578011
0.000418174
0.000810344
0.0011154
0.00132208
0.00146815
0.00158397
0.00168084
0.00176277
0.00183172
0.00188051
0.00190646
0.00190804
0.00188229
0.00182711
0.00175182
0.00170073
0.00170447
0.00180605
0.00193905
0.00203836
0.00209659
0.0021201
0.00211436
0.00207486
0.0019947
0.00186839
0.00169734
0.00150569
0.00133224
0.00120163
0.0011063
0.00102719
0.000938727
0.000798888
0.000568359
0.000418911
0.000794462
0.00109662
0.00130529
0.00145437
0.00157359
0.0016753
0.00176269
0.00183592
0.00189679
0.00193851
0.0019535
0.00194309
0.00190002
0.00182346
0.00173032
0.00167333
0.00167175
0.00175075
0.00187655
0.00197762
0.00204221
0.00206662
0.0020514
0.00198907
0.00187856
0.00172955
0.00155413
0.00138161
0.00124077
0.00113352
0.00104603
0.000950351
0.000798845
0.00053721
0.000381109
0.000753812
0.0010603
0.00127421
0.00142637
0.00154716
0.0016518
0.00174481
0.00182664
0.00189786
0.00195764
0.00199911
0.00201448
0.00200772
0.00196686
0.00188696
0.00177531
0.0016698
0.00162411
0.00162374
0.00168889
0.00179565
0.00188251
0.00192557
0.00191872
0.00185267
0.00172789
0.0015752
0.00141356
0.00127208
0.00115866
0.00106333
0.000957651
0.000792278
0.00049939
0.000326183
0.000704207
0.00101642
0.00124096
0.00139936
0.00152421
0.00163126
0.00172721
0.00181495
0.00189212
0.00195911
0.00201635
0.00206019
0.00208554
0.00208976
0.00206614
0.00200295
0.00189426
0.00175523
0.00162843
0.00155546
0.00155363
0.00161691
0.00170684
0.00177091
0.00177716
0.00171321
0.00158399
0.00144251
0.00130304
0.0011844
0.00108394
0.000973215
0.000797696
0.000503395
0.000295029
0.000683069
0.00100021
0.00123175
0.00139545
0.00152199
0.00162954
0.00172607
0.00181507
0.00189826
0.00197442
0.00204066
0.0020941
0.00213307
0.0021549
0.00215711
0.00213565
0.00208213
0.00198619
0.00184661
0.00168555
0.00155474
0.00150655
0.00152636
0.00157958
0.00162314
0.00162658
0.0015688
0.00144826
0.00132142
0.00120368
0.0011006
0.000987725
0.000811609
0.000532418
0.00027897
0.000674363
0.000994126
0.00122832
0.0013942
0.00152287
0.00163379
0.00173446
0.00182925
0.0019196
0.00200479
0.00208359
0.00215237
0.00220733
0.00224545
0.00226259
0.00225501
0.00221892
0.00214998
0.00204229
0.00189222
0.00171062
0.00155248
0.00148258
0.00148058
0.0015089
0.00153097
0.00151379
0.00144147
0.00133591
0.0012253
0.0011228
0.00100981
0.000835434
0.000578867
0.000279351
0.000680669
0.00100992
0.00124718
0.00141388
0.00154373
0.00165644
0.00176046
0.00186
0.00195678
0.00204922
0.00213808
0.00221941
0.00228948
0.00234531
0.00238234
0.00239384
0.0023749
0.00231683
0.00221908
0.00208045
0.00189579
0.00168815
0.00152518
0.00145448
0.00144496
0.00145921
0.0014588
0.00142052
0.00133859
0.00124096
0.00114352
0.00103432
0.00086984
0.000639799
0.000296109
0.00070771
0.00104328
0.00127464
0.0014336
0.00155924
0.0016716
0.00177937
0.00188804
0.00199871
0.00210841
0.00221418
0.00231044
0.00239573
0.00246876
0.00252484
0.00255807
0.0025564
0.00251696
0.00242556
0.00228889
0.00210906
0.00189099
0.00167025
0.0015003
0.00143228
0.00142115
0.00142185
0.00140107
0.00133597
0.00125281
0.00116312
0.00105863
0.00089938
0.000678845
0.000344165
0.000760459
0.00108743
0.00130677
0.00145874
0.00158297
0.00169752
0.00181005
0.00192476
0.00204013
0.00215618
0.0022736
0.00238986
0.0025026
0.00261419
0.00271128
0.00277559
0.00279071
0.00275621
0.00265493
0.00249908
0.00230452
0.00207397
0.00182411
0.00160586
0.0014561
0.00140694
0.00139602
0.00137975
0.0013331
0.00126086
0.00117738
0.00107791
0.000927679
0.000712277
0.000408965
0.000813848
0.00112543
0.00132935
0.00147041
0.00158902
0.00170162
0.00181645
0.00193218
0.00204888
0.00216786
0.00229006
0.00241567
0.00255387
0.00269447
0.00282454
0.0029177
0.00295409
0.00293194
0.00283991
0.00268967
0.00248614
0.00222802
0.00194509
0.00169873
0.00151189
0.00141565
0.00138829
0.00136909
0.0013281
0.00126348
0.00119029
0.00109603
0.000943955
0.000709608
0.000475605
0.000847993
0.00114131
0.00133278
0.00147101
0.00158875
0.00170018
0.00181211
0.00192422
0.00203768
0.00215512
0.00227932
0.00241416
0.00256431
0.00272743
0.00288595
0.00301443
0.00308152
0.00305981
0.00295134
0.00278075
0.00256133
0.00229447
0.00198243
0.00168672
0.00149534
0.00140948
0.00137777
0.00135575
0.00131836
0.00126178
0.00119028
0.00109789
0.000941323
0.00065446
0.000491464
0.000851598
0.00114218
0.00133143
0.00146296
0.00157281
0.00167387
0.00177205
0.00186689
0.00195944
0.00205442
0.00215945
0.00228511
0.00244681
0.00264519
0.00285117
0.00301583
0.00310977
0.0031252
0.00307033
0.00294133
0.00274951
0.0024957
0.00216289
0.00176669
0.00149488
0.00138938
0.00136284
0.00134393
0.00130769
0.00125402
0.00118688
0.0010925
0.000915518
0.000568437
0.000474244
0.000833939
0.0011231
0.00130762
0.00144011
0.00155389
0.00165777
0.00175303
0.00184037
0.00191722
0.00198518
0.0020487
0.00211713
0.00221112
0.0023554
0.00255746
0.00278106
0.00296542
0.00307234
0.0030934
0.00303857
0.00291409
0.00272155
0.0024398
0.00203915
0.00160365
0.0013961
0.00134832
0.00133022
0.00130186
0.00125347
0.00118846
0.0010926
0.000904116
0.000539932
0.000419556
0.000792653
0.00108228
0.00127734
0.00141553
0.00153138
0.00163691
0.00173544
0.0018259
0.00190345
0.00196546
0.0020138
0.00205475
0.00210246
0.00218118
0.00231902
0.00252025
0.00274142
0.00291986
0.00302318
0.00304837
0.00300325
0.00289195
0.00270316
0.00240423
0.00198133
0.0015581
0.00136647
0.00132624
0.00129464
0.00125033
0.00119082
0.00109763
0.000907971
0.000550363
0.000415319
0.000785361
0.00107557
0.0012678
0.00140652
0.00152544
0.00163482
0.00173537
0.00182674
0.00190461
0.00196604
0.00201189
0.0020453
0.00207942
0.00214251
0.00226306
0.00244637
0.00266509
0.00286022
0.00299251
0.00305305
0.00304568
0.00297267
0.00283172
0.00260708
0.00226728
0.00182886
0.00146843
0.00133463
0.00129573
0.00125205
0.00119204
0.00109838
0.000909929
0.000562016
0.000389675
0.000755928
0.00104341
0.00123906
0.00138236
0.00150664
0.00162316
0.00173278
0.00183571
0.0019217
0.00198387
0.00202051
0.00203781
0.00204353
0.00204679
0.00208031
0.00221286
0.00243919
0.00268949
0.0028937
0.00302142
0.00307393
0.00305752
0.00296738
0.00279843
0.00253459
0.00215634
0.00172431
0.00141212
0.00130102
0.00125437
0.00120191
0.00111457
0.000929741
0.000615561
0.000377109
0.000742488
0.00102455
0.00121759
0.00136014
0.00148547
0.00160649
0.00172604
0.00183955
0.00194144
0.00201969
0.00206554
0.00207748
0.0020644
0.00204273
0.00202921
0.00204546
0.00216098
0.0023877
0.00264036
0.00284385
0.0029843
0.00304964
0.00303857
0.00295575
0.00278983
0.00252551
0.00214721
0.00172645
0.00142613
0.00128214
0.00120712
0.00112492
0.000974748
0.000723683
0.000380552
0.000739465
0.00101721
0.00120564
0.00134619
0.00147267
0.0015984
0.00172628
0.0018565
0.00197719
0.00207458
0.00213728
0.00215957
0.00214485
0.00210393
0.00205667
0.00203515
0.00207121
0.00222053
0.00244007
0.00265473
0.00283161
0.00295141
0.00300318
0.00297828
0.00288558
0.00271313
0.00244054
0.00206113
0.00166724
0.00139847
0.00125798
0.00115608
0.00100645
0.000755708
0.000383609
0.0007376
0.00100758
0.00118924
0.00132518
0.00145002
0.00157871
0.00171619
0.00186051
0.0020015
0.00212109
0.00220377
0.00223937
0.00222795
0.00217899
0.00210802
0.00203885
0.00201697
0.00208497
0.00226943
0.00248836
0.0026824
0.00282362
0.00290595
0.00292749
0.00286905
0.00271086
0.00244856
0.00210777
0.00175703
0.00149143
0.00132236
0.00118668
0.00100817
0.00073086
0.000377897
0.000736572
0.0010056
0.00117896
0.00130763
0.00142737
0.00155554
0.00170022
0.00186131
0.00202675
0.00217309
0.0022841
0.00234489
0.00234961
0.00230196
0.00221412
0.00210639
0.00201525
0.0019985
0.00209889
0.00230554
0.00251518
0.0026711
0.00276041
0.00278097
0.00272836
0.00259536
0.00236916
0.002065
0.00175611
0.00152093
0.00135044
0.00118712
0.000970248
0.000596108
0.000378902
0.000743769
0.00100703
0.00117174
0.00129171
0.00140514
0.00153118
0.00168022
0.00185384
0.00203619
0.00220929
0.00234758
0.00243683
0.00247033
0.00244797
0.00237373
0.00225782
0.00211618
0.00199411
0.00197056
0.0020836
0.00226882
0.00243378
0.00254562
0.002585
0.00254832
0.00242626
0.00222543
0.00197627
0.00173328
0.00153339
0.00136279
0.0011759
0.000900814
0.000507307
0.000377154
0.000751044
0.00100925
0.00116341
0.00127357
0.00137794
0.00149787
0.00164818
0.00183376
0.00203586
0.00222989
0.00239944
0.00251855
0.0025866
0.0025976
0.00255172
0.00245377
0.00231092
0.0021404
0.0019913
0.00195443
0.00203699
0.00217086
0.00228201
0.0023374
0.00232871
0.00224748
0.00210049
0.00191306
0.00172158
0.00154718
0.00137992
0.00117854
0.000886691
0.000493435
0.000390353
0.000770831
0.00101935
0.00116048
0.0012602
0.00135503
0.00146681
0.00161478
0.00180532
0.0020196
0.00223123
0.00241948
0.00257496
0.00268137
0.00273366
0.00273083
0.00267125
0.00255987
0.00240206
0.00221079
0.00202976
0.00195817
0.0019904
0.00208201
0.0021547
0.00216968
0.0021208
0.00201061
0.00186244
0.00170427
0.00154844
0.00139104
0.00119177
0.000890619
0.000502046
0.000420322
0.000789738
0.00102508
0.00115733
0.00124808
0.00133265
0.00143248
0.00157043
0.00175778
0.0019794
0.00220646
0.00241405
0.00258504
0.00272265
0.0028173
0.00285665
0.00284553
0.00278375
0.00267467
0.00252076
0.00232448
0.00210953
0.00198091
0.00195694
0.00199353
0.00203232
0.00202304
0.00195471
0.00184139
0.00170538
0.0015618
0.00141032
0.00121877
0.000925819
0.000556375
0.000435472
0.000791501
0.00102453
0.00115119
0.00123506
0.00130857
0.0013892
0.00149993
0.00166449
0.00188218
0.00212451
0.00235806
0.00255971
0.00272372
0.00284897
0.00293407
0.00296523
0.00294862
0.00288747
0.00278494
0.00263747
0.00243488
0.00218446
0.00199314
0.00193099
0.00193091
0.00193341
0.00190259
0.00182205
0.00170916
0.00158154
0.00143955
0.00125777
0.00097873
0.000621173
0.000438036
0.000787731
0.00101777
0.00114459
0.0012277
0.00129458
0.0013566
0.00143252
0.00155139
0.00173661
0.00197787
0.00223476
0.00247139
0.00267544
0.00283821
0.00295378
0.00302355
0.00304264
0.00301747
0.00295199
0.00284531
0.00268766
0.00246708
0.00220177
0.00197923
0.00190051
0.00188027
0.00185545
0.00179591
0.00170413
0.00158897
0.00145789
0.00128725
0.0010187
0.000645736
0.000430485
0.000769835
0.00100176
0.00113441
0.00122269
0.00129082
0.00134503
0.00139412
0.00146358
0.0015949
0.00180183
0.00206418
0.00233157
0.00257471
0.00277807
0.00293409
0.00303939
0.00309516
0.00310172
0.00306363
0.00298256
0.00285345
0.00266172
0.00239685
0.00210396
0.00190795
0.00184769
0.00181698
0.00176817
0.00168933
0.0015871
0.0014657
0.00130442
0.00104233
0.000646767
0.000411478
0.000747269
0.000983758
0.00112239
0.00121567
0.00128818
0.00134461
0.00138797
0.00142569
0.00148257
0.00162884
0.00186176
0.00214252
0.00242176
0.00266517
0.00286155
0.00300758
0.00310218
0.00314465
0.00313973
0.00308751
0.00298687
0.00282671
0.00258848
0.00227865
0.00199041
0.00185098
0.00179388
0.00174531
0.00167669
0.00158554
0.00147281
0.00131804
0.00105663
0.000648193
0.000385156
0.000720726
0.000961377
0.00110681
0.00120619
0.00128438
0.00134596
0.00139063
0.00142224
0.00145003
0.0014888
0.00163678
0.00188904
0.00218819
0.00247427
0.00271626
0.00290591
0.00304429
0.00313274
0.00316833
0.00315389
0.0030894
0.00296921
0.0027783
0.00250265
0.00217462
0.0019059
0.00179292
0.0017345
0.0016691
0.00158614
0.00148286
0.00133796
0.00108382
0.000675146
0.000364071
0.000699011
0.00094117
0.0010912
0.00119593
0.0012797
0.00134712
0.00139874
0.00143244
0.00145156
0.00146839
0.00149922
0.00163589
0.00190832
0.00222185
0.00251068
0.00274931
0.00293515
0.00306936
0.0031487
0.00317165
0.00314472
0.00306469
0.0029221
0.00270141
0.00240152
0.00207981
0.00184596
0.00173745
0.00166626
0.00158594
0.00149046
0.00135555