/*--------------------------------*- C++ -*----------------------------------*\
| =========                 |                                                 |
| \\      /  F ield         | OpenFOAM: The Open Source CFD Toolbox           |
|  \\    /   O peration     | Version:  2.0.x                                 |
|   \\  /    A nd           | Web:      www.OpenFOAM.org                      |
|    \\/     M anipulation  |                                                 |
\*---------------------------------------------------------------------------*/
FoamFile
{
    version     2.0;
    format      ascii;
    class       volScalarField;
    location    "600";
    object      mut;
}
// * * * * * * * * * * * * * * * * * * * * * * * * * * * * * * * * * * * * * //

dimensions      [1 -1 -1 0 0 0 0];

internalField   nonuniform List<scalar> 
78750
(
1.63713e-07
1.45764e-05
1.66539e-05
2.12654e-05
2.5383e-05
2.57571e-05
2.48784e-05
2.44699e-05
2.41059e-05
2.40867e-05
2.42964e-05
2.46685e-05
2.51012e-05
2.56969e-05
2.6366e-05
2.70414e-05
2.7781e-05
2.84771e-05
2.93772e-05
2.96686e-05
3.19876e-05
3.22327e-05
3.23714e-05
3.45615e-05
3.39565e-05
3.41847e-05
3.40301e-05
3.3268e-05
3.16946e-05
2.90791e-05
2.70603e-05
2.44294e-05
2.10351e-05
1.71844e-05
1.69498e-07
1.43934e-07
2.30149e-05
1.28789e-05
8.35963e-06
9.85916e-06
1.72167e-05
2.67876e-05
3.32775e-05
3.80189e-05
4.08591e-05
4.31682e-05
4.61137e-05
4.80414e-05
5.01477e-05
5.29412e-05
5.54341e-05
5.81342e-05
6.08528e-05
6.36395e-05
6.64536e-05
6.36306e-05
6.49484e-05
7.21603e-05
7.46074e-05
7.22222e-05
6.84066e-05
6.40926e-05
4.51872e-05
4.32719e-05
4.55279e-05
3.24472e-05
2.44032e-05
2.12249e-05
2.52696e-05
3.62466e-07
3.33918e-08
4.82512e-06
4.62153e-06
6.25808e-06
1.05899e-05
1.92822e-05
3.3234e-05
5.03097e-05
6.30519e-05
6.9861e-05
7.34744e-05
7.52151e-05
7.7094e-05
7.85953e-05
7.96618e-05
8.04771e-05
8.10485e-05
8.10624e-05
8.04551e-05
7.93535e-05
7.81116e-05
7.65122e-05
7.27399e-05
6.73569e-05
6.46588e-05
6.14919e-05
5.21726e-05
3.80093e-05
3.83164e-05
3.63792e-05
2.46082e-05
1.92161e-05
1.97177e-05
3.81861e-05
4.31133e-07
3.24446e-08
3.94317e-06
7.58562e-06
1.48588e-05
2.86595e-05
4.80542e-05
6.71828e-05
7.8066e-05
8.40886e-05
8.81207e-05
9.09912e-05
9.28933e-05
9.38235e-05
9.39282e-05
9.33216e-05
9.21237e-05
9.02329e-05
8.77428e-05
8.4728e-05
8.11008e-05
7.61141e-05
6.89195e-05
6.29429e-05
5.88946e-05
5.53589e-05
5.39486e-05
4.7202e-05
3.50214e-05
3.41175e-05
2.98308e-05
1.96409e-05
1.53752e-05
1.78723e-05
3.83938e-05
4.34926e-07
4.10994e-08
4.56106e-06
1.03727e-05
2.04565e-05
3.54199e-05
5.1426e-05
6.43088e-05
7.44703e-05
8.27265e-05
8.82916e-05
9.12533e-05
9.193e-05
9.17456e-05
9.07638e-05
8.92913e-05
8.74986e-05
8.53492e-05
8.28465e-05
7.99706e-05
7.67578e-05
7.32553e-05
6.89727e-05
6.34079e-05
5.69068e-05
5.12898e-05
4.76682e-05
4.25078e-05
3.45246e-05
3.336e-05
2.65389e-05
1.64828e-05
1.2784e-05
1.60103e-05
3.54647e-05
4.23124e-07
8.02169e-08
4.82398e-06
1.21893e-05
2.60975e-05
4.50294e-05
6.21633e-05
7.47778e-05
8.31083e-05
8.7746e-05
9.00115e-05
9.13356e-05
9.20019e-05
9.20156e-05
9.15266e-05
9.05709e-05
8.91877e-05
8.72071e-05
8.46518e-05
8.15639e-05
7.79549e-05
7.37742e-05
6.91028e-05
6.4116e-05
5.90556e-05
5.41004e-05
4.94595e-05
4.46575e-05
3.61112e-05
3.18687e-05
2.48771e-05
1.48868e-05
1.12475e-05
1.47397e-05
2.98847e-05
4.02211e-07
9.68652e-08
5.23559e-06
1.318e-05
2.73715e-05
4.70491e-05
6.45565e-05
7.64984e-05
8.42916e-05
8.94991e-05
9.26677e-05
9.40493e-05
9.435e-05
9.36445e-05
9.22315e-05
9.04474e-05
8.82863e-05
8.5665e-05
8.26685e-05
7.94167e-05
7.59675e-05
7.22697e-05
6.82018e-05
6.37187e-05
5.8968e-05
5.44068e-05
5.08952e-05
4.83764e-05
4.09894e-05
2.88507e-05
2.27856e-05
1.47954e-05
1.04371e-05
1.37674e-05
2.72693e-05
3.88885e-07
1.2062e-07
5.26493e-06
1.37357e-05
2.97984e-05
5.15293e-05
6.911e-05
7.99989e-05
8.6471e-05
9.00575e-05
9.17281e-05
9.25397e-05
9.26649e-05
9.24241e-05
9.19539e-05
9.16652e-05
9.07939e-05
8.82053e-05
8.48785e-05
8.15184e-05
7.83511e-05
7.50412e-05
7.12818e-05
6.70097e-05
6.24019e-05
5.78348e-05
5.39039e-05
5.02687e-05
4.14438e-05
2.88914e-05
2.26242e-05
1.46951e-05
1.01834e-05
1.31976e-05
2.51082e-05
3.86244e-07
1.34813e-07
5.51333e-06
1.44403e-05
3.08025e-05
5.20868e-05
6.92668e-05
8.03566e-05
8.75285e-05
9.20938e-05
9.46901e-05
9.59745e-05
9.61732e-05
9.55511e-05
9.38355e-05
9.05581e-05
8.72221e-05
8.53277e-05
8.39451e-05
8.25086e-05
8.01656e-05
7.71891e-05
7.3605e-05
6.94204e-05
6.48631e-05
6.02535e-05
5.59802e-05
5.14378e-05
4.17717e-05
2.89869e-05
2.24736e-05
1.45099e-05
1.01022e-05
1.31539e-05
2.33395e-05
3.84858e-07
1.5196e-07
5.57072e-06
1.48248e-05
3.24324e-05
5.5165e-05
7.22479e-05
8.24293e-05
8.85844e-05
9.21767e-05
9.38247e-05
9.45266e-05
9.44805e-05
9.43228e-05
9.3347e-05
9.15431e-05
8.97947e-05
8.82414e-05
8.61201e-05
8.36928e-05
8.17422e-05
7.9642e-05
7.63678e-05
7.21876e-05
6.77736e-05
6.3058e-05
5.74591e-05
4.9541e-05
3.77313e-05
3.10509e-05
2.46727e-05
1.43662e-05
1.01464e-05
1.3256e-05
2.17867e-05
3.87895e-07
1.66711e-07
5.75025e-06
1.54659e-05
3.36753e-05
5.6218e-05
7.28505e-05
8.30424e-05
8.94672e-05
9.33637e-05
9.52953e-05
9.59752e-05
9.53689e-05
9.29987e-05
9.09529e-05
9.05932e-05
9.01013e-05
8.8319e-05
8.52448e-05
8.19351e-05
7.96696e-05
7.84611e-05
7.73362e-05
7.53168e-05
7.16268e-05
6.65173e-05
6.01188e-05
5.14507e-05
4.00446e-05
3.33802e-05
2.38941e-05
1.38576e-05
1.0296e-05
1.36711e-05
2.01111e-05
3.92987e-07
1.85638e-07
5.91769e-06
1.61303e-05
3.56773e-05
5.92551e-05
7.54829e-05
8.4832e-05
9.02417e-05
9.30225e-05
9.42072e-05
9.42677e-05
9.29868e-05
9.19313e-05
9.19177e-05
9.08794e-05
8.89205e-05
8.64976e-05
8.32845e-05
8.00561e-05
7.81669e-05
7.76281e-05
7.75132e-05
7.72011e-05
7.59966e-05
7.26632e-05
6.56775e-05
5.49703e-05
4.26831e-05
3.57883e-05
2.36585e-05
1.36955e-05
1.06389e-05
1.44314e-05
1.85795e-05
3.97581e-07
2.01668e-07
6.08204e-06
1.67575e-05
3.70244e-05
6.04687e-05
7.62269e-05
8.531e-05
9.05445e-05
9.30042e-05
9.36923e-05
9.21975e-05
9.11606e-05
9.10143e-05
8.96403e-05
8.80626e-05
8.65511e-05
8.48526e-05
8.21691e-05
7.91061e-05
7.73953e-05
7.7333e-05
7.79423e-05
7.84724e-05
7.83187e-05
7.63496e-05
7.05977e-05
5.90519e-05
4.49389e-05
3.62397e-05
2.34121e-05
1.3814e-05
1.10466e-05
1.54963e-05
1.69391e-05
3.99365e-07
2.2151e-07
6.30763e-06
1.75568e-05
3.90752e-05
6.3157e-05
7.81916e-05
8.62044e-05
9.02545e-05
9.15525e-05
9.06707e-05
8.98814e-05
8.92813e-05
8.7377e-05
8.5783e-05
8.46817e-05
8.39653e-05
8.32502e-05
8.16839e-05
7.9301e-05
7.78714e-05
7.84239e-05
7.99256e-05
8.1295e-05
8.16865e-05
7.97756e-05
7.3334e-05
6.06746e-05
5.00554e-05
3.88797e-05
2.32069e-05
1.402e-05
1.15441e-05
1.68435e-05
1.55677e-05
3.98921e-07
2.36821e-07
6.4659e-06
1.81175e-05
4.02184e-05
6.41241e-05
7.85804e-05
8.60148e-05
8.93105e-05
8.89597e-05
8.79225e-05
8.66378e-05
8.41632e-05
8.24079e-05
8.15952e-05
8.16809e-05
8.22979e-05
8.28703e-05
8.24879e-05
8.06076e-05
7.89672e-05
7.94964e-05
8.13551e-05
8.30531e-05
8.35776e-05
8.16801e-05
7.60448e-05
6.58166e-05
5.58189e-05
3.85792e-05
2.25622e-05
1.43524e-05
1.222e-05
1.87023e-05
1.41911e-05
3.94948e-07
2.54439e-07
6.7015e-06
1.89192e-05
4.21618e-05
6.63178e-05
7.98619e-05
8.6041e-05
8.7585e-05
8.65079e-05
8.43527e-05
8.12913e-05
7.89477e-05
7.78349e-05
7.81982e-05
7.97131e-05
8.17386e-05
8.352e-05
8.4172e-05
8.31952e-05
8.17271e-05
8.20906e-05
8.42019e-05
8.63021e-05
8.74877e-05
8.62977e-05
7.93966e-05
6.79478e-05
5.73371e-05
3.94825e-05
2.33786e-05
1.49586e-05
1.29898e-05
2.06651e-05
1.32495e-05
3.94755e-07
2.66659e-07
6.84855e-06
1.93808e-05
4.30921e-05
6.70711e-05
7.99516e-05
8.50849e-05
8.51763e-05
8.29492e-05
7.96925e-05
7.60606e-05
7.39426e-05
7.39179e-05
7.57694e-05
7.88518e-05
8.23104e-05
8.52613e-05
8.68596e-05
8.66185e-05
8.49256e-05
8.4715e-05
8.66738e-05
8.84395e-05
8.90022e-05
8.73581e-05
8.15264e-05
7.40226e-05
5.77871e-05
3.83592e-05
2.42899e-05
1.59757e-05
1.40186e-05
2.29281e-05
1.24568e-05
3.96936e-07
2.80955e-07
7.09097e-06
2.01901e-05
4.49642e-05
6.88732e-05
8.06015e-05
8.43049e-05
8.2836e-05
7.89318e-05
7.44937e-05
7.11402e-05
6.99178e-05
7.11191e-05
7.43844e-05
7.89325e-05
8.37536e-05
8.78207e-05
9.02524e-05
9.05597e-05
8.91128e-05
8.88152e-05
9.04598e-05
9.19176e-05
9.218e-05
9.0128e-05
8.37836e-05
7.51182e-05
5.76597e-05
3.85301e-05
2.50206e-05
1.70079e-05
1.53556e-05
2.57286e-05
1.18314e-05
4.02675e-07
2.91629e-07
7.25233e-06
2.07394e-05
4.62054e-05
6.98254e-05
8.04407e-05
8.23199e-05
7.94645e-05
7.4718e-05
6.93809e-05
6.63815e-05
6.63381e-05
6.89981e-05
7.37225e-05
7.96179e-05
8.56104e-05
9.0622e-05
9.38197e-05
9.46808e-05
9.35816e-05
9.29653e-05
9.39594e-05
9.527e-05
9.57547e-05
9.3073e-05
8.78954e-05
7.37552e-05
5.44273e-05
3.80084e-05
2.54841e-05
1.80716e-05
1.71157e-05
2.96409e-05
1.13133e-05
4.07634e-07
3.05441e-07
7.49122e-06
2.17112e-05
4.87285e-05
7.18838e-05
8.06587e-05
8.05226e-05
7.50499e-05
6.86549e-05
6.39264e-05
6.2293e-05
6.38396e-05
6.80285e-05
7.41226e-05
8.12229e-05
8.82879e-05
9.4266e-05
9.8318e-05
9.99155e-05
9.92782e-05
9.79889e-05
9.79115e-05
9.87405e-05
9.86037e-05
9.51537e-05
8.84427e-05
7.28234e-05
5.34472e-05
3.74882e-05
2.57189e-05
1.90442e-05
1.90531e-05
3.3935e-05
1.09439e-05
4.12327e-07
3.2333e-07
7.63922e-06
2.25604e-05
5.12921e-05
7.35151e-05
7.98859e-05
7.61172e-05
6.80792e-05
6.14875e-05
5.83429e-05
5.90442e-05
6.28649e-05
6.8857e-05
7.62572e-05
8.42794e-05
9.20477e-05
9.86629e-05
0.000103294
0.000105391
0.000104998
0.000103025
0.000101889
0.000102212
0.000102146
9.97034e-05
8.81359e-05
7.02907e-05
5.28216e-05
3.74718e-05
2.62176e-05
2.01337e-05
2.11167e-05
3.80113e-05
1.07041e-05
4.17797e-07
3.60584e-07
7.91937e-06
2.41752e-05
5.56058e-05
7.55002e-05
7.63144e-05
6.8935e-05
6.07446e-05
5.45267e-05
5.36352e-05
5.72795e-05
6.39249e-05
7.22165e-05
8.10305e-05
8.97515e-05
9.78448e-05
0.000104644
0.000109462
0.000111697
0.000111363
0.000109361
0.00010779
0.000107142
0.00010574
0.000101059
8.79563e-05
6.99758e-05
5.26188e-05
3.76905e-05
2.69213e-05
2.13637e-05
2.3264e-05
4.14323e-05
1.05379e-05
4.23145e-07
4.20433e-07
8.29483e-06
2.64257e-05
6.03662e-05
7.44977e-05
7.11493e-05
6.17592e-05
5.19927e-05
4.85245e-05
5.1252e-05
5.86288e-05
6.83079e-05
7.83185e-05
8.76765e-05
9.62109e-05
0.000103934
0.000110494
0.000115096
0.00011726
0.000116963
0.000115105
0.000113476
0.000112386
0.000109403
0.00010069
8.62939e-05
6.94337e-05
5.26056e-05
3.81452e-05
2.77845e-05
2.27068e-05
2.55618e-05
4.43746e-05
1.04007e-05
4.25977e-07
4.95786e-07
8.87342e-06
3.0548e-05
6.54074e-05
7.43329e-05
6.69133e-05
5.34934e-05
4.57334e-05
4.55501e-05
5.14568e-05
6.13777e-05
7.27054e-05
8.3273e-05
9.25369e-05
0.000100398
0.000107167
0.000112844
0.000117018
0.000119358
0.000119748
0.000118511
0.000116792
0.000115336
0.000109805
9.87946e-05
8.45179e-05
6.80566e-05
5.19682e-05
3.83428e-05
2.86392e-05
2.42103e-05
2.82032e-05
4.67807e-05
1.02994e-05
4.2519e-07
5.28763e-07
9.09009e-06
3.17302e-05
6.72251e-05
7.15278e-05
6.00913e-05
5.09148e-05
4.72392e-05
4.77452e-05
5.2041e-05
5.88667e-05
6.80063e-05
7.84002e-05
8.86321e-05
9.7665e-05
0.000104865
0.000110632
0.000114971
0.000117601
0.00011852
0.000117939
0.000116567
0.000115158
0.000107966
9.54763e-05
8.14682e-05
6.58804e-05
5.08574e-05
3.8227e-05
2.93706e-05
2.58263e-05
3.11412e-05
4.84198e-05
1.01675e-05
4.18055e-07
5.29275e-07
9.12056e-06
3.27709e-05
6.70051e-05
6.91145e-05
6.17407e-05
5.51797e-05
5.18954e-05
5.12054e-05
5.23046e-05
5.59075e-05
6.1863e-05
6.95161e-05
7.81815e-05
8.74205e-05
9.6312e-05
0.000104187
0.000109908
0.000113454
0.00011524
0.00011602
0.000117478
0.000113012
0.000102573
9.16316e-05
7.85605e-05
6.40739e-05
5.00117e-05
3.8226e-05
3.02003e-05
2.75915e-05
3.41829e-05
4.92783e-05
1.01145e-05
4.1222e-07
5.07911e-07
8.8965e-06
3.13538e-05
6.30026e-05
6.99307e-05
6.7185e-05
6.30949e-05
5.93136e-05
5.65599e-05
5.47887e-05
5.43329e-05
5.59434e-05
6.02987e-05
6.7038e-05
7.48878e-05
8.33188e-05
9.14689e-05
9.86234e-05
0.000104675
0.000108791
0.000111066
0.000112799
0.000108256
9.80277e-05
8.72809e-05
7.50836e-05
6.18695e-05
4.90598e-05
3.82985e-05
3.11347e-05
2.94587e-05
3.71514e-05
4.988e-05
1.01887e-05
4.13027e-07
4.54074e-07
8.46531e-06
2.73524e-05
5.66211e-05
6.89472e-05
7.0459e-05
6.79841e-05
6.53401e-05
6.23748e-05
5.97608e-05
5.76929e-05
5.62204e-05
5.57388e-05
5.69238e-05
6.04948e-05
6.64048e-05
7.36838e-05
8.15046e-05
8.86149e-05
9.47876e-05
9.95604e-05
0.000102579
9.95154e-05
9.12682e-05
8.18296e-05
7.11e-05
5.93982e-05
4.78539e-05
3.82013e-05
3.19322e-05
3.11229e-05
3.96847e-05
5.02877e-05
1.02871e-05
4.17679e-07
3.76111e-07
7.95413e-06
2.35162e-05
4.90376e-05
6.52583e-05
7.03928e-05
7.11799e-05
6.90705e-05
6.66751e-05
6.42652e-05
6.19674e-05
6.00442e-05
5.82254e-05
5.66206e-05
5.55659e-05
5.56643e-05
5.75585e-05
6.16163e-05
6.76825e-05
7.45822e-05
8.09033e-05
8.49545e-05
8.54235e-05
8.12958e-05
7.41052e-05
6.55009e-05
5.58831e-05
4.62048e-05
3.78148e-05
3.25971e-05
3.27879e-05
4.21639e-05
5.08645e-05
1.04883e-05
4.28537e-07
3.01641e-07
7.60306e-06
2.11548e-05
4.32314e-05
6.29367e-05
7.16054e-05
7.37085e-05
7.33439e-05
7.12427e-05
6.84641e-05
6.55906e-05
6.28929e-05
6.05678e-05
5.86807e-05
5.70082e-05
5.55465e-05
5.42565e-05
5.34537e-05
5.38051e-05
5.58172e-05
5.92442e-05
6.3216e-05
6.8146e-05
6.8556e-05
6.39531e-05
5.86119e-05
5.15887e-05
4.39153e-05
3.70596e-05
3.289e-05
3.40137e-05
4.40554e-05
5.12307e-05
1.07273e-05
4.4698e-07
2.44236e-07
7.09782e-06
1.90223e-05
4.12692e-05
6.35193e-05
7.45226e-05
7.84392e-05
7.94504e-05
7.79966e-05
7.51133e-05
7.19217e-05
6.88649e-05
6.54877e-05
6.19484e-05
5.88832e-05
5.66732e-05
5.52376e-05
5.38404e-05
5.23555e-05
5.08069e-05
4.9138e-05
4.83506e-05
5.30887e-05
5.58457e-05
5.21889e-05
5.00875e-05
4.62516e-05
4.10012e-05
3.59984e-05
3.30573e-05
3.50518e-05
4.55516e-05
5.15551e-05
1.10361e-05
4.75892e-07
2.28659e-07
6.93533e-06
1.84063e-05
3.88813e-05
6.08951e-05
7.44538e-05
8.16026e-05
8.43481e-05
8.41289e-05
8.16608e-05
7.71501e-05
7.3115e-05
7.12501e-05
7.07544e-05
6.98221e-05
6.69488e-05
6.2168e-05
5.74907e-05
5.38863e-05
5.10507e-05
4.74936e-05
4.31182e-05
4.57878e-05
4.84361e-05
4.45975e-05
4.37207e-05
4.14057e-05
3.78417e-05
3.44236e-05
3.27703e-05
3.56089e-05
4.63821e-05
5.16349e-05
1.132e-05
5.17177e-07
2.3284e-07
6.72934e-06
1.75162e-05
3.74507e-05
6.14937e-05
7.70431e-05
8.42034e-05
8.60108e-05
8.24746e-05
7.79856e-05
7.69723e-05
7.71164e-05
7.75278e-05
7.78379e-05
7.77754e-05
7.7483e-05
7.63234e-05
7.32496e-05
6.7273e-05
5.86347e-05
4.88156e-05
4.13703e-05
4.32633e-05
4.44877e-05
3.90434e-05
3.82711e-05
3.76139e-05
3.54097e-05
3.28059e-05
3.1943e-05
3.55796e-05
4.65379e-05
5.16394e-05
1.1497e-05
5.65621e-07
2.75165e-07
6.84378e-06
1.84559e-05
4.12654e-05
6.64556e-05
7.92548e-05
8.29131e-05
7.84424e-05
7.45407e-05
7.48523e-05
7.66827e-05
8.00619e-05
8.39248e-05
8.67513e-05
8.76009e-05
8.65548e-05
8.41746e-05
8.10533e-05
7.63899e-05
6.90916e-05
5.81689e-05
4.628e-05
4.40003e-05
4.21532e-05
3.62112e-05
3.46448e-05
3.39946e-05
3.28682e-05
3.12538e-05
3.09951e-05
3.50911e-05
4.65592e-05
5.14878e-05
1.14242e-05
6.04845e-07
3.59119e-07
7.16339e-06
2.01829e-05
4.64729e-05
7.04115e-05
7.69369e-05
7.36618e-05
6.92115e-05
6.73641e-05
6.87727e-05
7.45372e-05
8.30978e-05
9.23056e-05
9.99033e-05
0.000104526
0.000105598
0.000103093
9.76317e-05
8.98501e-05
7.91118e-05
6.5253e-05
5.24141e-05
4.73183e-05
4.24528e-05
3.46612e-05
3.15064e-05
3.1141e-05
3.05524e-05
2.97278e-05
3.02008e-05
3.48788e-05
4.69295e-05
5.09771e-05
1.11823e-05
6.28021e-07
4.98218e-07
7.92827e-06
2.42313e-05
5.68678e-05
7.27938e-05
7.30194e-05
6.65749e-05
5.9298e-05
5.74933e-05
6.3414e-05
7.54363e-05
8.97773e-05
0.000102874
0.000113019
0.000119502
0.000122184
0.000121142
0.000116133
0.00010708
9.42769e-05
7.92525e-05
6.36317e-05
4.99514e-05
4.19665e-05
3.46084e-05
2.94419e-05
2.83453e-05
2.8153e-05
2.80375e-05
2.91977e-05
3.46265e-05
4.76843e-05
4.98023e-05
1.07897e-05
6.26782e-07
6.07245e-07
8.5821e-06
2.7518e-05
6.04171e-05
7.39392e-05
6.80965e-05
5.58634e-05
5.03434e-05
5.32427e-05
6.35039e-05
7.98912e-05
9.83899e-05
0.000113288
0.000122998
0.000128558
0.000130715
0.000129923
0.000125859
0.000117502
0.000104838
9.11034e-05
7.59663e-05
5.93088e-05
4.49563e-05
3.37415e-05
2.76479e-05
2.59813e-05
2.59458e-05
2.6347e-05
2.82677e-05
3.47609e-05
4.92208e-05
4.71849e-05
1.0196e-05
6.02444e-07
6.1099e-07
8.62359e-06
2.84833e-05
6.311e-05
7.04029e-05
6.374e-05
5.6376e-05
5.1894e-05
5.13112e-05
5.61193e-05
6.71308e-05
8.33107e-05
0.000102777
0.000120051
0.000129963
0.000134239
0.000134242
0.000130537
0.000123195
0.000112532
0.000100088
8.5962e-05
6.94183e-05
5.1016e-05
3.60533e-05
2.75542e-05
2.43888e-05
2.40345e-05
2.4906e-05
2.76574e-05
3.53183e-05
5.07364e-05
4.4803e-05
9.78324e-06
5.69061e-07
5.79691e-07
8.43825e-06
2.83214e-05
6.00568e-05
6.98842e-05
6.81059e-05
6.25894e-05
5.75724e-05
5.37732e-05
5.21694e-05
5.43642e-05
6.32117e-05
7.76979e-05
9.60874e-05
0.000117286
0.000131921
0.000137199
0.000135919
0.000129624
0.000119286
0.000107917
9.45997e-05
7.7045e-05
5.71965e-05
4.02557e-05
2.94484e-05
2.41899e-05
2.2863e-05
2.39092e-05
2.72929e-05
3.60139e-05
5.2237e-05
4.24581e-05
9.47754e-06
5.48759e-07
5.23356e-07
8.06996e-06
2.52183e-05
5.43134e-05
6.75505e-05
6.89671e-05
6.69531e-05
6.33403e-05
5.86454e-05
5.35708e-05
4.96904e-05
4.90816e-05
5.40976e-05
6.73589e-05
8.67307e-05
0.000109637
0.000130062
0.000137446
0.00013459
0.000125787
0.000115082
0.000101852
8.35986e-05
6.29695e-05
4.43261e-05
3.1694e-05
2.50295e-05
2.26216e-05
2.33067e-05
2.7317e-05
3.72904e-05
5.37419e-05
4.05417e-05
9.28825e-06
5.41622e-07
4.72405e-07
7.7011e-06
2.32838e-05
5.0827e-05
6.55843e-05
6.83227e-05
6.764e-05
6.53471e-05
6.2359e-05
5.86492e-05
5.40006e-05
4.89133e-05
4.53879e-05
4.59596e-05
5.42249e-05
7.29464e-05
9.8528e-05
0.000122988
0.00013306
0.00012957
0.000120392
0.000107363
8.91354e-05
6.86888e-05
4.85791e-05
3.40566e-05
2.60913e-05
2.29045e-05
2.34444e-05
2.78938e-05
3.86304e-05
5.45682e-05
3.92173e-05
9.18417e-06
5.42764e-07
4.32521e-07
7.45109e-06
2.19721e-05
4.82409e-05
6.54589e-05
7.02452e-05
7.03305e-05
6.85348e-05
6.59562e-05
6.29388e-05
5.93557e-05
5.46218e-05
4.85727e-05
4.27516e-05
4.02552e-05
4.45564e-05
6.04533e-05
8.74175e-05
0.000114966
0.000126791
0.000123723
0.000112182
9.40941e-05
7.47705e-05
5.386e-05
3.73552e-05
2.78494e-05
2.35493e-05
2.35596e-05
2.80731e-05
3.9182e-05
5.46573e-05
3.86788e-05
9.17467e-06
5.57527e-07
4.23866e-07
7.33414e-06
2.14691e-05
4.73618e-05
6.56729e-05
7.27149e-05
7.46262e-05
7.38757e-05
7.16017e-05
6.83727e-05
6.43947e-05
5.95944e-05
5.35388e-05
4.62122e-05
3.92392e-05
3.58743e-05
3.98039e-05
5.57793e-05
8.4572e-05
0.000113667
0.000124538
0.000118532
0.000105584
8.25076e-05
5.88582e-05
4.19438e-05
3.08222e-05
2.50531e-05
2.41072e-05
2.82735e-05
3.94609e-05
5.46833e-05
3.86357e-05
9.22303e-06
5.83673e-07
4.28785e-07
7.24528e-06
2.08251e-05
4.56793e-05
6.53245e-05
7.38738e-05
7.72133e-05
7.78452e-05
7.6706e-05
7.41481e-05
7.01917e-05
6.47293e-05
5.7522e-05
4.89582e-05
4.05247e-05
3.47129e-05
3.45136e-05
4.3524e-05
6.5147e-05
9.77862e-05
0.00012399
0.000131373
0.000114132
8.73622e-05
6.45812e-05
4.63863e-05
3.37634e-05
2.67711e-05
2.50578e-05
2.90556e-05
4.05834e-05
5.53637e-05
3.78728e-05
9.1636e-06
6.01292e-07
4.6412e-07
7.32588e-06
2.11053e-05
4.56146e-05
6.52691e-05
7.46832e-05
7.92642e-05
8.11721e-05
8.11452e-05
7.94125e-05
7.54977e-05
6.90799e-05
5.98774e-05
4.89719e-05
3.91316e-05
3.34608e-05
3.36858e-05
4.2077e-05
6.06994e-05
9.10071e-05
0.000123879
0.000133795
0.000117084
9.24372e-05
6.91224e-05
5.02541e-05
3.67725e-05
2.89138e-05
2.65599e-05
3.025e-05
4.14903e-05
5.5706e-05
3.77867e-05
9.05959e-06
6.05255e-07
4.96149e-07
7.48541e-06
2.13315e-05
4.52969e-05
6.46647e-05
7.45765e-05
7.97905e-05
8.25351e-05
8.36338e-05
8.30197e-05
8.00925e-05
7.36012e-05
6.20533e-05
4.84045e-05
3.78556e-05
3.26916e-05
3.35312e-05
4.20729e-05
5.93728e-05
8.58407e-05
0.000111588
0.000119148
0.000110137
9.0515e-05
6.95276e-05
5.17255e-05
3.85784e-05
3.05986e-05
2.78992e-05
3.13128e-05
4.30226e-05
5.71663e-05
3.6693e-05
8.90804e-06
5.95108e-07
4.96986e-07
7.52558e-06
2.15746e-05
4.44989e-05
6.31349e-05
7.34115e-05
7.89808e-05
8.18658e-05
8.27935e-05
8.21859e-05
7.99384e-05
7.43439e-05
6.52463e-05
5.3248e-05
4.24397e-05
3.51314e-05
3.27609e-05
3.58617e-05
4.66261e-05
6.84036e-05
9.01603e-05
9.69919e-05
9.52534e-05
8.34342e-05
6.71084e-05
5.14826e-05
3.9378e-05
3.17268e-05
2.91449e-05
3.289e-05
4.46414e-05
5.82217e-05
3.63949e-05
8.66674e-06
5.62547e-07
4.52253e-07
7.38212e-06
2.09987e-05
4.35021e-05
6.24818e-05
7.33283e-05
7.90671e-05
8.17289e-05
8.24199e-05
8.16054e-05
7.98029e-05
7.65949e-05
7.13564e-05
6.44303e-05
5.47271e-05
4.45235e-05
3.65249e-05
3.24506e-05
3.35971e-05
4.22731e-05
5.66958e-05
6.78148e-05
7.44131e-05
7.05371e-05
5.99608e-05
4.83187e-05
3.87226e-05
3.27718e-05
3.10575e-05
3.49805e-05
4.67425e-05
5.91819e-05
3.4271e-05
8.50902e-06
5.23015e-07
3.87272e-07
6.98859e-06
1.96946e-05
4.23884e-05
6.36088e-05
7.59041e-05
8.22596e-05
8.51276e-05
8.59132e-05
8.54583e-05
8.38529e-05
8.22447e-05
8.01053e-05
7.6639e-05
7.02904e-05
6.07661e-05
4.98e-05
4.01275e-05
3.36382e-05
3.10199e-05
3.27261e-05
4.00582e-05
5.11513e-05
5.74012e-05
5.50789e-05
4.72348e-05
3.92303e-05
3.36234e-05
3.22427e-05
3.63578e-05
4.79171e-05
5.96075e-05
3.52712e-05
8.63429e-06
5.27217e-07
3.50391e-07
6.76192e-06
1.87152e-05
4.09232e-05
6.37965e-05
7.72885e-05
8.3985e-05
8.69466e-05
8.77595e-05
8.78154e-05
8.75818e-05
8.68763e-05
8.57863e-05
8.36919e-05
8.06307e-05
7.55781e-05
6.71689e-05
5.60339e-05
4.43298e-05
3.45509e-05
2.85811e-05
2.93853e-05
3.46893e-05
3.92655e-05
4.40378e-05
4.33702e-05
3.86166e-05
3.46481e-05
3.37555e-05
3.84617e-05
5.00214e-05
6.07991e-05
3.66746e-05
9.00128e-06
5.57536e-07
3.31372e-07
6.57762e-06
1.82698e-05
4.03407e-05
6.29191e-05
7.62791e-05
8.36401e-05
8.79405e-05
9.03165e-05
9.11917e-05
9.10406e-05
9.12598e-05
9.14854e-05
9.0433e-05
8.76528e-05
8.36623e-05
7.86236e-05
7.14932e-05
6.06619e-05
4.70442e-05
3.50378e-05
2.70675e-05
2.69746e-05
3.17942e-05
3.42568e-05
3.67252e-05
3.66396e-05
3.46657e-05
3.45489e-05
3.92024e-05
5.0093e-05
6.02027e-05
3.81618e-05
9.33979e-06
6.06055e-07
3.31823e-07
6.45504e-06
1.79142e-05
4.03822e-05
6.40158e-05
7.8083e-05
8.61017e-05
9.06625e-05
9.27715e-05
9.35229e-05
9.45607e-05
9.50815e-05
9.52047e-05
9.44853e-05
9.25922e-05
8.92081e-05
8.44168e-05
7.84924e-05
7.16311e-05
6.23417e-05
4.76374e-05
3.34903e-05
2.84619e-05
2.60622e-05
2.63688e-05
3.16144e-05
3.39971e-05
3.40886e-05
3.44817e-05
3.87359e-05
4.91425e-05
5.98967e-05
4.05524e-05
9.75707e-06
6.69644e-07
3.51673e-07
6.4092e-06
1.80854e-05
4.20635e-05
6.65467e-05
7.93428e-05
8.59032e-05
8.92935e-05
9.15364e-05
9.37139e-05
9.57494e-05
9.79885e-05
9.99035e-05
0.000100067
9.83487e-05
9.50119e-05
9.05068e-05
8.47878e-05
7.7978e-05
6.96586e-05
5.90751e-05
4.5665e-05
3.38621e-05
2.8399e-05
2.44279e-05
2.43264e-05
2.8884e-05
3.15331e-05
3.37937e-05
3.90058e-05
4.99471e-05
6.03359e-05
4.0482e-05
9.85494e-06
7.10318e-07
4.08569e-07
6.67675e-06
1.9141e-05
4.43736e-05
6.74301e-05
7.83648e-05
8.4017e-05
8.66998e-05
8.89133e-05
9.23863e-05
9.59718e-05
9.89013e-05
0.000100792
0.000101505
0.000101159
9.98838e-05
9.7948e-05
9.54019e-05
9.17578e-05
8.5191e-05
7.41784e-05
5.90066e-05
4.14572e-05
3.25004e-05
2.53862e-05
2.2007e-05
2.5282e-05
2.95271e-05
3.3892e-05
4.05066e-05
5.14779e-05
6.07089e-05
4.15072e-05
1.00767e-05
7.45114e-07
4.85184e-07
7.03038e-06
2.07225e-05
4.79857e-05
6.91084e-05
7.79815e-05
8.17184e-05
8.46268e-05
8.88917e-05
9.27708e-05
9.6621e-05
0.000100016
0.000101355
0.000100633
9.84981e-05
9.65278e-05
9.54829e-05
9.5347e-05
9.60785e-05
9.72626e-05
9.45618e-05
8.02649e-05
5.76596e-05
4.17409e-05
2.83053e-05
2.1481e-05
2.22846e-05
2.68097e-05
3.29418e-05
4.13243e-05
5.31428e-05
6.17898e-05
3.85893e-05
9.83602e-06
7.42223e-07
5.63891e-07
7.44435e-06
2.25767e-05
5.11035e-05
7.06674e-05
7.89937e-05
8.27158e-05
8.47829e-05
8.66293e-05
8.97138e-05
9.33613e-05
9.5697e-05
9.51374e-05
9.23647e-05
9.05108e-05
9.21799e-05
9.73346e-05
0.000103312
0.000106995
0.000109525
0.000110125
0.000100143
7.47093e-05
4.56672e-05
2.80488e-05
2.17599e-05
2.21922e-05
2.62716e-05
3.25527e-05
4.16504e-05
5.37967e-05
6.13884e-05
3.73719e-05
9.4136e-06
6.84588e-07
5.82569e-07
7.57057e-06
2.3065e-05
5.23879e-05
7.18297e-05
7.76947e-05
7.80845e-05
7.75634e-05
7.85416e-05
8.09903e-05
8.33413e-05
8.35036e-05
8.04652e-05
7.71342e-05
7.77514e-05
8.38392e-05
9.50515e-05
0.000109329
0.000122251
0.00013267
0.000137216
0.000127145
9.99886e-05
5.70606e-05
3.05419e-05
2.15527e-05
2.09611e-05
2.48019e-05
3.14555e-05
4.1356e-05
5.39548e-05
6.0848e-05
3.52217e-05
8.93301e-06
5.9485e-07
5.62213e-07
7.57119e-06
2.3693e-05
5.36009e-05
7.01636e-05
7.41473e-05
7.38953e-05
7.3047e-05
7.32087e-05
7.45436e-05
7.64143e-05
7.73185e-05
7.59212e-05
7.15001e-05
6.70484e-05
6.90152e-05
7.99059e-05
9.76067e-05
0.000117216
0.000133097
0.000143773
0.000146197
0.000127247
8.12707e-05
4.34959e-05
2.50129e-05
2.02304e-05
2.24926e-05
2.8544e-05
3.83586e-05
5.21276e-05
6.09206e-05
3.43463e-05
8.93096e-06
5.6519e-07
4.97662e-07
7.24281e-06
2.20318e-05
5.03715e-05
6.8868e-05
7.4338e-05
7.46333e-05
7.33252e-05
7.241e-05
7.27924e-05
7.433e-05
7.5659e-05
7.43968e-05
6.93059e-05
6.27229e-05
5.93156e-05
6.29815e-05
7.54067e-05
9.60228e-05
0.000121306
0.000145912
0.000161838
0.00015331
0.000115649
6.93296e-05
3.83421e-05
2.3953e-05
2.12244e-05
2.55052e-05
3.45566e-05
4.88727e-05
6.02946e-05
3.47663e-05
8.99469e-06
5.76116e-07
4.92659e-07
7.18579e-06
2.1939e-05
5.0295e-05
6.89753e-05
7.46604e-05
7.51719e-05
7.39915e-05
7.29774e-05
7.27731e-05
7.3253e-05
7.35177e-05
7.1859e-05
6.74558e-05
6.15114e-05
5.75357e-05
5.92696e-05
6.94069e-05
8.80979e-05
0.00011281
0.00013755
0.000152559
0.000154552
0.000138112
9.96177e-05
5.75237e-05
3.21965e-05
2.25215e-05
2.33384e-05
3.20394e-05
4.68443e-05
5.93304e-05
3.45483e-05
9.01203e-06
5.88282e-07
4.62325e-07
7.04968e-06
2.13296e-05
4.84867e-05
6.73149e-05
7.39465e-05
7.53885e-05
7.47399e-05
7.36802e-05
7.28262e-05
7.25764e-05
7.2769e-05
7.23167e-05
6.86932e-05
6.05133e-05
5.26714e-05
5.08629e-05
5.6716e-05
7.15465e-05
9.64196e-05
0.000121738
0.000135641
0.000142788
0.000139213
0.000119799
8.44827e-05
5.04571e-05
3.05781e-05
2.38017e-05
2.70257e-05
4.06253e-05
5.85434e-05
3.8302e-05
9.45014e-06
6.44397e-07
4.47468e-07
7.0519e-06
2.11173e-05
4.72231e-05
6.66182e-05
7.42534e-05
7.63042e-05
7.56911e-05
7.42343e-05
7.33488e-05
7.3323e-05
7.35902e-05
7.30299e-05
7.03402e-05
6.53465e-05
5.64954e-05
4.74417e-05
4.55101e-05
5.35832e-05
7.50026e-05
0.000101436
0.000116592
0.000128476
0.000133195
0.000128268
0.00010941
7.68682e-05
4.61817e-05
3.03042e-05
2.71949e-05
3.44995e-05
5.25379e-05
4.39322e-05
9.90606e-06
7.57141e-07
4.51537e-07
7.06434e-06
2.1219e-05
4.75157e-05
6.67184e-05
7.4365e-05
7.67246e-05
7.68128e-05
7.65152e-05
7.62979e-05
7.63498e-05
7.66756e-05
7.68688e-05
7.56516e-05
7.10635e-05
6.18917e-05
5.06982e-05
4.42777e-05
4.68676e-05
6.19009e-05
8.29064e-05
9.77394e-05
0.000112933
0.000121484
0.000120671
0.000109342
8.69651e-05
6.03346e-05
3.95358e-05
3.06051e-05
3.59726e-05
5.89287e-05
4.14695e-05
9.73514e-06
7.9046e-07
4.55124e-07
7.20149e-06
2.15912e-05
4.74793e-05
6.59939e-05
7.37995e-05
7.66775e-05
7.73504e-05
7.75253e-05
7.79378e-05
7.86606e-05
7.96278e-05
8.0636e-05
8.06466e-05
7.67987e-05
6.75914e-05
5.61654e-05
4.63738e-05
4.34044e-05
5.10043e-05
6.53383e-05
8.11405e-05
9.69211e-05
0.000105012
0.000103483
9.2899e-05
7.53304e-05
5.65147e-05
4.38088e-05
4.16553e-05
5.28203e-05
6.60185e-05
3.9676e-05
9.51771e-06
7.64276e-07
4.48361e-07
7.20753e-06
2.1631e-05
4.76963e-05
6.58513e-05
7.308e-05
7.49537e-05
7.4968e-05
7.56086e-05
7.73818e-05
7.94978e-05
8.12776e-05
8.24791e-05
8.31962e-05
8.22755e-05
7.65313e-05
6.40771e-05
5.07008e-05
4.40647e-05
4.28986e-05
4.89652e-05
6.31429e-05
7.80029e-05
8.64129e-05
8.60166e-05
7.88263e-05
6.85505e-05
5.88214e-05
5.32531e-05
5.41727e-05
6.33996e-05
6.72844e-05
3.29523e-05
8.77364e-06
6.23513e-07
4.49504e-07
7.28836e-06
2.18888e-05
4.90183e-05
6.61637e-05
7.10016e-05
7.10643e-05
7.05e-05
7.17802e-05
7.50073e-05
7.90375e-05
8.24111e-05
8.48248e-05
8.67838e-05
8.82913e-05
8.67846e-05
7.76557e-05
6.1566e-05
4.90943e-05
4.01788e-05
3.94295e-05
4.79578e-05
5.86048e-05
6.73161e-05
7.14986e-05
7.07957e-05
6.70262e-05
6.35568e-05
6.35947e-05
6.94362e-05
7.60973e-05
6.77162e-05
3.09681e-05
8.49435e-06
5.30701e-07
4.47405e-07
7.34326e-06
2.20561e-05
4.94214e-05
6.56601e-05
6.83266e-05
6.62402e-05
6.48302e-05
6.69871e-05
7.23584e-05
7.89135e-05
8.47224e-05
8.84132e-05
9.06729e-05
9.22933e-05
9.30307e-05
8.97068e-05
7.80117e-05
6.27948e-05
4.60829e-05
3.70779e-05
3.82257e-05
4.6042e-05
5.43421e-05
5.87383e-05
6.1446e-05
6.35378e-05
6.57342e-05
6.98929e-05
7.66794e-05
7.9751e-05
6.80306e-05
3.11994e-05
8.56911e-06
5.16189e-07
4.62985e-07
7.47526e-06
2.277e-05
5.12885e-05
6.49865e-05
6.48257e-05
5.97535e-05
5.73853e-05
6.04662e-05
6.79539e-05
7.70342e-05
8.50898e-05
9.11746e-05
9.55072e-05
9.91664e-05
0.000102702
0.000104688
0.000100692
8.61211e-05
6.66864e-05
4.64997e-05
3.6691e-05
3.68229e-05
4.3006e-05
5.1264e-05
5.6093e-05
5.90965e-05
6.38114e-05
7.01985e-05
7.70759e-05
7.96087e-05
6.82739e-05
3.15725e-05
8.66247e-06
5.25166e-07
4.98343e-07
7.65209e-06
2.45081e-05
5.34824e-05
6.41847e-05
6.01602e-05
5.30977e-05
5.12085e-05
5.58225e-05
6.54235e-05
7.70527e-05
8.75183e-05
9.51981e-05
0.000101011
0.000105963
0.000110641
0.000115286
0.000117802
0.000113244
9.77492e-05
7.11489e-05
4.82677e-05
3.76131e-05
3.57589e-05
3.94244e-05
4.61986e-05
5.3539e-05
6.05283e-05
6.81595e-05
7.5576e-05
7.80368e-05
6.77351e-05
3.31801e-05
9.15646e-06
5.81873e-07
5.16203e-07
7.74266e-06
2.50625e-05
5.50184e-05
6.29301e-05
5.61902e-05
4.88632e-05
4.67136e-05
5.08652e-05
6.06021e-05
7.3453e-05
8.61768e-05
9.63711e-05
0.000104026
0.000110689
0.000117662
0.000125038
0.000132413
0.000136351
0.000130081
0.000106316
7.39341e-05
4.89891e-05
3.68643e-05
3.46809e-05
3.82661e-05
4.51066e-05
5.34767e-05
6.24032e-05
7.07642e-05
7.50004e-05
6.79007e-05
3.5026e-05
9.45932e-06
6.49482e-07