/*--------------------------------*- C++ -*----------------------------------*\
| =========                 |                                                 |
| \\      /  F ield         | OpenFOAM: The Open Source CFD Toolbox           |
|  \\    /   O peration     | Version:  2.0.x                                 |
|   \\  /    A nd           | Web:      www.OpenFOAM.org                      |
|    \\/     M anipulation  |                                                 |
\*---------------------------------------------------------------------------*/
FoamFile
{
    version     2.0;
    format      ascii;
    class       volScalarField;
    location    "600";
    object      omega;
}
// * * * * * * * * * * * * * * * * * * * * * * * * * * * * * * * * * * * * * //

dimensions      [0 0 -1 0 0 0 0];

internalField   nonuniform List<scalar> 
78750
(
1021.94
6.99585
7.4066
7.51459
7.59338
7.73551
7.87671
7.98931
8.08529
8.16882
8.2404
8.30102
8.35188
8.39335
8.42705
8.4532
8.47231
8.4851
8.48938
8.496
8.5044
8.50651
8.50458
8.49157
8.46969
8.44052
8.40506
8.36415
8.31628
8.26377
8.20431
8.13298
8.04434
7.71553
1091.46
1021.8
6.17859
6.54298
6.67846
7.06902
7.48529
7.83008
8.12374
8.36925
8.57183
8.73777
8.87077
8.97552
9.05496
9.11184
9.14823
9.16741
9.16701
9.15844
9.12367
9.0692
9.00042
8.92253
8.8441
8.76377
8.6847
8.6067
8.52797
8.44129
8.34992
8.25486
8.14613
8.01148
7.62133
1092.85
1021.04
5.02083
5.6247
6.2938
6.99485
7.63034
8.13091
8.49045
8.7472
8.93867
9.08288
9.18901
9.26328
9.31
9.33259
9.33283
9.31995
9.28594
9.23569
9.17201
9.09775
9.01419
8.92163
8.81984
8.70828
8.58648
8.46281
8.33201
8.21007
8.11323
8.04546
7.98375
7.8052
7.44278
1093.36
1021.03
5.58524
6.72038
7.64302
8.23529
8.59946
8.86053
9.06357
9.22228
9.34038
9.42741
9.49017
9.53274
9.55713
9.56397
9.55707
9.53031
9.48659
9.42618
9.34969
9.25858
9.15284
9.03054
8.89246
8.74035
8.57972
8.41325
8.23665
8.06613
7.92346
7.81901
7.7413
7.58446
7.28454
1093.4
1021.1
5.92585
7.06009
7.80366
8.31155
8.66283
8.92138
9.12243
9.28389
9.41588
9.5229
9.60639
9.66681
9.7042
9.71871
9.713
9.68418
9.63428
9.5639
9.47381
9.36535
9.24129
9.10239
8.94729
8.77489
8.58814
8.39227
8.18311
7.97526
7.794
7.64915
7.54559
7.39885
7.14462
1093.33
1021.37
6.2606
7.41216
8.15309
8.6219
8.94875
9.19383
9.38561
9.53912
9.66192
9.75798
9.82964
9.87851
9.90573
9.91198
9.90065
9.86726
9.81407
9.74109
9.64839
9.53635
9.40653
9.25967
9.09509
8.91169
8.70994
8.49386
8.26105
8.01739
7.78668
7.57908
7.41647
7.25464
7.01726
1093.18
1021.49
6.37821
7.48416
8.18847
8.65147
8.97904
9.22829
9.42878
9.59392
9.73033
9.84167
9.92969
9.99477
10.0372
10.0571
10.0548
10.0292
9.9808
9.90962
9.81631
9.70198
9.56836
9.41833
9.2508
9.06383
8.85786
8.63939
8.40929
8.15185
7.87096
7.59936
7.36417
7.15395
6.91394
1093.09
1021.66
6.51254
7.64249
8.36805
8.84125
9.1729
9.42315
9.623
9.78649
9.92103
10.0307
10.1171
10.1806
10.2214
10.2392
10.2348
10.2065
10.1541
10.0795
9.98286
9.86545
9.72862
9.57484
9.40339
9.21283
9.00368
8.78061
8.54143
8.26883
7.96601
7.65953
7.36785
7.10729
6.85772
1093.07
1021.75
6.59711
7.70734
8.42227
8.89707
9.23331
9.48866
9.69474
9.86572
10.0092
10.1281
10.2237
10.2968
10.3477
10.3759
10.38
10.3636
10.317
10.2437
10.146
10.0268
9.88608
9.72686
9.54918
9.35215
9.13627
8.90463
8.65301
8.36398
8.04262
7.71071
7.3782
7.08294
6.82062
1093.06
1021.87
6.72619
7.88217
8.61807
9.09255
9.41895
9.66714
9.86811
10.0354
10.1755
10.2906
10.3821
10.4511
10.4985
10.5244
10.5287
10.5149
10.4757
10.4114
10.319
10.1969
10.0465
9.8764
9.68781
9.48066
9.25535
9.01037
8.73382
8.42284
8.10204
7.76732
7.41396
7.08867
6.82119
1093.09
1021.98
6.82328
7.9793
8.7076
9.17627
9.49982
9.74978
9.95462
10.1273
10.272
10.391
10.486
10.5584
10.6086
10.6369
10.6437
10.6326
10.5973
10.5377
10.4516
10.3375
10.195
10.0228
9.82112
9.59805
9.35495
9.09005
8.79492
8.47394
8.14465
7.79569
7.4296
7.09686
6.82556
1093.13
1022.11
6.98021
8.16965
8.90068
9.35281
9.66472
9.90654
10.1058
10.2734
10.4132
10.5278
10.619
10.6881
10.7358
10.7634
10.7705
10.7597
10.7244
10.6651
10.5805
10.47
10.3346
10.1716
9.9788
9.75413
9.497
9.21376
8.89926
8.56308
8.21849
7.84823
7.4635
7.12214
6.84567
1093.17
1022.22
7.08237
8.27189
8.99225
9.43334
9.74236
9.98477
10.1868
10.3563
10.4977
10.6141
10.7071
10.7777
10.8265
10.8537
10.8591
10.846
10.8083
10.7475
10.6628
10.5551
10.4247
10.269
10.0861
9.87342
9.62667
9.33702
8.99481
8.63324
8.26481
7.8747
7.48069
7.14235
6.86552
1093.19
1022.36
7.24155
8.44798
9.15371
9.58036
9.87806
10.1124
10.3073
10.4707
10.6079
10.7212
10.812
10.881
10.929
10.9554
10.9601
10.9463
10.9085
10.8484
10.7655
10.6608
10.5337
10.3832
10.2072
10.0026
9.76428
9.47983
9.13821
8.75398
8.34624
7.91966
7.5072
7.1692
6.88765
1093.19
1022.47
7.34028
8.54393
9.23454
9.65205
9.9453
10.1783
10.372
10.5353
10.6732
10.7879
10.8808
10.9523
11.0019
11.0291
11.0338
11.0193
10.9813
10.9222
10.8416
10.7397
10.6158
10.4696
10.2992
10.1011
9.86995
9.59691
9.27805
8.90486
8.45222
7.96622
7.52665
7.18975
6.90155
1093.16
1022.59
7.48544
8.69636
9.36964
9.77031
10.0505
10.2736
10.4592
10.617
10.752
10.8665
10.9613
11.0358
11.0888
11.1198
11.1283
11.1167
11.0825
11.0274
10.9517
10.8532
10.7326
10.591
10.4275
10.24
10.0228
9.76438
9.45885
9.08975
8.617
8.06127
7.5694
7.21774
6.91948
1093.16
1022.68
7.57491
8.78089
9.4406
9.83094
10.1045
10.322
10.5039
10.6605
10.7969
10.9158
11.0166
11.0974
11.1562
11.192
11.2049
11.1966
11.1663
11.1156
11.0435
10.9478
10.8301
10.6922
10.5337
10.3526
10.1451
9.90679
9.62478
9.26347
8.78513
8.20065
7.63749
7.25807
6.94529
1093.18
1022.78
7.70901
8.91545
9.55438
9.92426
10.182
10.3866
10.5594
10.7119
10.8492
10.9731
11.0815
11.1707
11.2377
11.2811
11.301
11.2984
11.2741
11.2288
11.1599
11.0659
10.9492
10.8124
10.6562
10.4798
10.2801
10.0523
9.78015
9.42595
8.95082
8.35441
7.74711
7.32135
6.98626
1093.23
1022.86
7.80446
9.0056
9.62493
9.97758
10.222
10.4158
10.5818
10.7336
10.8747
11.0089
11.1299
11.231
11.3081
11.3599
11.3869
11.3906
11.3739
11.3333
11.2679
11.1767
11.0616
10.9257
10.771
10.5975
10.4045
10.1833
9.91041
9.55437
9.08393
8.48943
7.86571
7.4095
7.04316
1093.26
1022.95
7.94282
9.14046
9.73089
10.0569
10.2793
10.4543
10.6062
10.7478
10.8998
11.0487
11.1859
11.3017
11.3911
11.4527
11.488
11.4991
11.4883
11.4528
11.3916
11.304
11.1909
11.0557
10.9008
10.7268
10.5322
10.3067
10.026
9.66125
9.18578
8.59249
7.96895
7.50071
7.10713
1093.3
1023.07
8.06687
9.25364
9.81546
10.1172
10.3182
10.4744
10.613
10.7506
10.9075
11.0752
11.2326
11.3647
11.4683
11.541
11.5848
11.6034
11.5976
11.5665
11.5098
11.4267
11.3176
11.1855
11.0333
10.863
10.6693
10.4361
10.1429
9.76616
9.28093
8.68631
8.06465
7.59282
7.17866
1093.34
1023.31
8.25545
9.40871
9.93085
10.2028
10.3779
10.5081
10.6185
10.75
10.9095
11.0862
11.2635
11.4221
11.5456
11.6336
11.6865
11.7118
11.7105
11.6826
11.6286
11.5485
11.4432
11.3153
11.167
10.9987
10.8034
10.564
10.2605
9.87055
9.37306
8.77414
8.15284
7.67889
7.24857
1093.39
1023.72
8.46771
9.54846
10.0255
10.2756
10.4314
10.5348
10.6171
10.7303
10.8907
11.0804
11.2642
11.4277
11.5627
11.6686
11.7489
11.795
11.8068
11.787
11.7372
11.6619
11.5621
11.4403
11.2981
11.1329
10.9352
10.6903
10.3793
9.97926
9.47108
8.8667
8.24421
7.76714
7.32027
1093.41
1024.25
8.67251
9.66305
10.1042
10.345
10.4931
10.5694
10.6027
10.66
10.7858
10.9736
11.1756
11.3644
11.5266
11.656
11.7501
11.8112
11.8387
11.8377
11.8085
11.7481
11.6593
11.5456
11.4095
11.2467
11.0482
10.8
10.4832
10.0754
9.55998
8.95283
8.331
7.84972
7.38337
1093.41
1024.53
8.70014
9.67278
10.1299
10.3886
10.5548
10.6326
10.6383
10.6319
10.6729
10.757
10.9248
11.1152
11.3086
11.4844
11.6287
11.7353
11.8023
11.8286
11.8203
11.7797
11.7097
11.6132
11.4887
11.3317
11.1347
10.8851
10.5646
10.1533
9.6371
9.03228
8.41689
7.93057
7.43822
1093.36
1024.54
8.68991
9.66756
10.1345
10.4272
10.6291
10.7397
10.7581
10.7186
10.6718
10.6657
10.692
10.783
10.9408
11.1303
11.3119
11.4716
11.5964
11.6816
11.7228
11.7262
11.6925
11.6241
11.5199
11.3774
11.1913
10.9482
10.6309
10.2208
9.70695
9.10666
8.49988
8.00741
7.4877
1093.32
1024.41
8.56682
9.59726
10.1136
10.4298
10.6672
10.8376
10.9108
10.9197
10.8606
10.7633
10.6825
10.6594
10.68
10.7456
10.8758
11.0522
11.216
11.356
11.4615
11.526
11.5471
11.5267
11.4634
11.3527
11.1885
10.9662
10.6693
10.274
9.77245
9.18343
8.58838
8.091
7.54782
1093.32
1024.05
8.36734
9.47164
10.0505
10.4092
10.669
10.8736
11.0337
11.1194
11.137
11.0867
10.9733
10.8246
10.6867
10.6151
10.6062
10.6355
10.7301
10.8703
11.0273
11.156
11.2481
11.2956
11.2969
11.2458
11.1352
10.9479
10.6701
10.3026
9.82295
9.25028
8.66954
8.17145
7.61068
1093.35
1023.51
8.11345
9.29483
9.94299
10.345
10.641
10.8728
11.0643
11.218
11.3213
11.3611
11.3477
11.2638
11.1139
10.9173
10.7155
10.555
10.4643
10.454
10.501
10.6111
10.751
10.8746
10.9623
10.998
10.9662
10.8503
10.6363
10.2976
9.85883
9.3153
8.75512
8.26047
7.68707
1093.43
1022.98
7.87124
9.11636
9.82426
10.2638
10.5839
10.8436
11.0615
11.2496
11.4026
11.5179
11.5858
11.6009
11.5563
11.4434
11.2636
11.0307
10.7698
10.5189
10.3268
10.217
10.2084
10.3064
10.4465
10.581
10.6628
10.6542
10.5271
10.2655
9.8588
9.35427
8.82373
8.34252
7.76863
1093.56
1022.57
7.68176
8.9966
9.7722
10.2409
10.5677
10.8308
11.059
11.2678
11.4554
11.6161
11.7412
11.8195
11.8423
11.8071
11.7118
11.5548
11.3411
11.078
10.7798
10.475
10.2079
10.0406
9.9953
10.0483
10.184
10.2986
10.3072
10.1684
9.85039
9.39116
8.89498
8.43196
7.86736
1093.77
1022.44
7.64857
8.98453
9.77155
10.2522
10.5896
10.8592
11.0958
11.3173
11.5306
11.7304
11.9016
12.028
12.096
12.0985
12.0444
11.9218
11.7422
11.5147
11.2448
10.936
10.5971
10.2762
10.0431
9.91624
9.89622
9.93973
9.99569
9.97031
9.76853
9.39075
8.94714
8.51479
7.97363
1094.07
1022.45
7.69539
9.09612
9.9106
10.3945
10.7158
10.9685
11.1975
11.4267
11.6655
11.9044
12.1185
12.2843
12.3859
12.4144
12.3774
12.2669
12.0951
11.87
11.5964
11.2743
10.9047
10.5302
10.2119
9.96458
9.8204
9.77353
9.78003
9.76925
9.64219
9.3595
8.97967
8.59122
8.08993
1094.43
1022.73
8.00759
9.4204
10.1502
10.5631
10.8456
11.0778
11.3077
11.564
11.85
12.1403
12.4042
12.6123
12.7446
12.7918
12.7625
12.6531
12.4713
12.2263
11.9277
11.5782
11.1761
10.758
10.3884
10.078
9.84544
9.71481
9.66188
9.63098
9.53501
9.31243
8.99538
8.65219
8.1948
1094.74
1023.28
8.36762
9.68869
10.3236
10.6783
10.9339
11.1635
11.4111
11.7113
12.0599
12.4167
12.7338
12.9824
13.1466
13.2174
13.2062
13.1051
12.9145
12.6392
12.2882
11.8733
11.409
10.9344
10.5131
10.1595
9.88465
9.70714
9.60894
9.54954
9.45831
9.27183
9.00228
8.7006
8.28301
1094.93
1024.22
8.80095
9.94179
10.4687
10.7619
10.9761
11.1802
11.4234
11.7373
12.1064
12.4804
12.8091
13.0704
13.2645
13.3904
13.4254
13.3753
13.2398
13.0217
12.7085
12.2901
11.7646
11.1666
10.6195
10.1889
9.88015
9.68364
9.56979
9.4966
9.40452
9.2379
9.00015
8.73551
8.34166
1094.92
1025.08
8.94206
9.9856
10.4852
10.772
10.9748
11.1521
11.3634
11.6741
12.0477
12.4393
12.7896
13.0714
13.2754
13.4101
13.4711
13.466
13.3883
13.2217
12.9581
12.602
12.1437
11.5773
10.9331
10.3213
9.89461
9.64733
9.52313
9.44503
9.35374
9.20302
8.99528
8.74775
8.34244
1094.77
1025.13
8.96177
9.99136
10.487
10.7744
10.9727
11.108
11.2062
11.3111
11.5449
11.9221
12.3316
12.7185
13.0373
13.2712
13.4147
13.4627
13.4305
13.3205
13.1332
12.8406
12.4505
11.9567
11.3514
10.6685
10.0435
9.66395
9.49027
9.40945
9.32509
9.19019
8.99877
8.75196
8.32954
1094.51
1024.94
8.8421
9.91004
10.4479
10.7708
10.9937
11.1338
11.2076
11.2507
11.3067
11.3917
11.658
12.0574
12.4687
12.8249
13.0925
13.2647
13.3371
13.3119
13.189
12.9779
12.6647
12.246
11.7074
11.0499
10.3518
9.79855
9.50502
9.38281
9.29657
9.17325
8.9977
8.75337
8.3019
1094.35
1024.55
8.66352
9.79536
10.3877
10.7459
10.9995
11.1847
11.2915
11.3225
11.3112
11.301
11.3378
11.4772
11.8206
12.2316
12.606
12.8913
13.0751
13.1556
13.1313
12.9998
12.7678
12.4257
11.9594
11.3607
10.6688
10.0269
9.60436
9.40357
9.30167
9.17795
9.00397
8.75146
8.27485
1094.29
1024.19
8.5198
9.69029
10.3195
10.7082
10.9922
11.2055
11.3593
11.4434
11.4585
11.4141
11.3355
11.2828
11.301
11.5328
11.96
12.3637
12.6691
12.8605
12.9417
12.9118
12.7676
12.5069
12.1173
11.5869
10.9286
10.2562
9.75353
9.48435
9.34195
9.20216
9.02132
8.75915
8.2635
1094.3
1023.9
8.38572
9.58873
10.2543
10.6681
10.9721
11.2064
11.3805
11.4994
11.5575
11.5636
11.5102
11.4045
11.2897
11.2481
11.3604
11.7614
12.1709
12.4751
12.6585
12.7274
12.6833
12.5166
12.219
11.7754
11.1752
10.4942
9.91663
9.56713
9.37964
9.22396
9.0382
8.7717
8.26836
1094.4
1023.82
8.33407
9.53757
10.2196
10.6515
10.9712
11.2214
11.4139
11.55
11.6313
11.6576
11.6343
11.5594
11.4334
11.2836
11.2119
11.3091
11.7001
12.0931
12.3671
12.5199
12.562
12.4948
12.2992
11.9542
11.4388
10.7948
10.1702
9.72783
9.46702
9.27399
9.0734
8.80271
8.30929
1094.6
1023.84
8.3129
9.50843
10.2018
10.648
10.9809
11.2463
11.4574
11.6133
11.7107
11.7492
11.73
11.6557
11.5337
11.3832
11.2603
11.2883
11.5904
11.9739
12.2629
12.4328
12.5013
12.4756
12.3372
12.0606
11.6218
11.033
10.4018
9.89406
9.56574
9.33362
9.11543
8.83566
8.34326
1094.73
1024.07
8.33441
9.50061
10.1964
10.6511
10.995
11.2772
11.5034
11.6734
11.7873
11.839
11.8269
11.7483
11.6064
11.4314
11.3107
11.3584
11.6678
12.0309
12.3008
12.4565
12.5215
12.5045
12.3908
12.1535
11.7679
11.2359
10.632
10.093
9.70293
9.42009
9.17317
8.87978
8.3872
1094.78
1024.31
8.3448
9.48022
10.1764
10.6405
10.9948
11.2825
11.521
11.7169
11.8535
11.9255
11.9308
11.8608
11.709
11.4977
11.3501
11.3664
11.67
12.0331
12.3049
12.4636
12.5294
12.5177
12.4161
12.2031
11.8569
11.3697
10.797
10.2533
9.8278
9.50826
9.23579
8.92141
8.40111
1094.72
1024.32
8.28447
9.41504
10.1226
10.5992
10.9654
11.2678
11.5208
11.7288
11.899
12.0131
12.0542
12.0254
11.9063
11.6921
11.4242
11.2805
11.2703
11.5334
11.9026
12.1705
12.3391
12.4012
12.3589
12.1902
11.8874
11.4654
10.9478
10.415
9.96168
9.60464
9.30432
8.96498
8.39925
1094.48
1024.05
8.13139
9.29431
10.0262
10.5165
10.8918
11.2035
11.4736
11.7064
11.9042
12.0678
12.1784
12.2176
12.1945
12.0791
11.8559
11.5426
11.2515
11.1319
11.1481
11.3787
11.6892
11.9251
12.0343
12.0072
11.8183
11.4651
11.0113
10.5162
10.0656
9.69127
9.36574
8.99157
8.37456
1094.18
1023.59
7.92292
9.13379
9.91294
10.4272
10.8137
11.1378
11.4202
11.6714
11.8885
12.0734
12.2287
12.3455
12.4086
12.4174
12.3483
12.1699
11.8647
11.4754
11.124
10.9336
10.9572
11.1646
11.4353
11.6124
11.6185
11.4216
11.0397
10.6067
10.1663
9.77854
9.43818
9.0485
8.39519
1094.21
1023.33
7.82972
9.07031
9.87841
10.4124
10.8079
11.1326
11.4158
11.6703
11.9023
12.1109
12.2893
12.4316
12.5349
12.5921
12.5983
12.5412
12.3957
12.1307
11.7398
11.2827
10.9136
10.7945
10.8736
11.043
11.1758
11.1807
10.9989
10.6293
10.2286
9.84449
9.49651
9.10062
8.44655
1094.42
1023.19
7.7903
9.0467
9.86613
10.4077
10.8088
11.1422
11.4365
11.7073
11.9592
12.1915
12.402
12.5823
12.7244
12.822
12.8655
12.846
12.7534
12.5737
12.2858
11.8731
11.3604
10.9087
10.7155
10.7218
10.8218
10.8883
10.8335
10.6106
10.2789
9.91899
9.57438
9.18078
8.53903
1094.78
1023.19
7.81028
9.09693
9.92385
10.4667
10.8706
11.209
11.5117
11.793
12.0596
12.3092
12.5448
12.7559
12.935
13.0764
13.17
13.1992
13.1515
13.0046
12.7535
12.3885
11.8853
11.2974
10.8272
10.6269
10.6129
10.6638
10.6644
10.543
10.2811
9.96906
9.64538
9.26875
8.67077
1095.25
1023.32
7.92166
9.21875
10.0175
10.5315
10.9198
11.2546
11.566
11.8713
12.1743
12.4667
12.7411
12.9851
13.1979
13.3782
13.5183
13.6013
13.5981
13.5017
13.2759
12.9308
12.4603
11.8662
11.245
10.7507
10.5577
10.5377
10.5459
10.4825
10.2815
10.0086
9.71105
9.35343
8.7808
1095.54
1023.7
8.13179
9.37245
10.1212
10.6099
10.9912
11.3296
11.6529
11.9735
12.2877
12.5957
12.8997
13.1921
13.4719
13.7416
13.9708
14.12
14.1551
14.0746
13.8346
13.458
12.9787
12.3808
11.6967
11.0673
10.6249
10.485
10.4602
10.4132
10.266
10.0345
9.75944
9.42069
8.88401
1095.79
1024.23
8.35397
9.5132
10.2004
10.6485
11.0112
11.3455
11.6744
11.9973
12.3144
12.6295
12.9454
13.2645
13.6022
13.9388
14.2452
14.4606
14.5514
14.5063
14.2973
13.944
13.4475
12.7906
12.0403
11.3487
10.7994
10.5116
10.4336
10.3781
10.2504
10.0432
9.8025
9.48365
8.94635
1095.78
1024.78
8.48959
9.57026
10.2134
10.6526
11.0132
11.3444
11.6681
11.9832
12.2933
12.6056
12.927
13.2654
13.6326
14.023
14.3969
14.7009
14.8544
14.8091
14.5652
14.1703
13.6441
12.976
12.151
11.3238
10.7553
10.4947
10.4012
10.3357
10.2193
10.0385
9.80431
9.49257
8.93882
1095.39
1024.93
8.5106
9.57615
10.2109
10.6304
10.9678
11.2694
11.5552
11.8254
12.084
12.3437
12.6248
12.9523
13.361
13.8463
14.3336
14.7122
14.9259
14.9631
14.8437
14.5538
14.1097
13.5013
12.6617
11.5794
10.7588
10.4343
10.3543
10.2999
10.1876
10.0158
9.79526
9.47774
8.85515
1094.77
1024.82
8.46361
9.52011
10.1396
10.5616
10.9112
11.221
11.4968
11.7449
11.9612
12.1477
12.3236
12.5134
12.7659
13.1419
13.6485
14.1862
14.6131
14.8546
14.9018
14.7798
14.4991
14.0549
13.3814
12.3622
11.1341
10.4646
10.3083
10.2529
10.1671
10.0138
9.8017
9.48007
8.81368
1094.54
1024.37
8.27005
9.37224
10.0377
10.4834
10.8432
11.1608
11.4507
11.7102
11.9268
12.1001
12.2296
12.3364
12.4629
12.6709
13.0289
13.5374
14.0768
14.4984
14.7385
14.7992
14.7009
14.4508
14.0161
13.2998
12.2101
10.9894
10.3705
10.2411
10.143
10.0025
9.80824
9.49599
8.82705
1094.61
1024.33
8.25988
9.34956
10.0061
10.4542
10.8234
11.1522
11.4461
11.707
11.9246
12.0934
12.2193
12.3103
12.403
12.5732
12.8857
13.3508
13.8882
14.3532
14.6624
14.8049
14.7938
14.6342
14.3161
13.7937
12.9633
11.7937
10.7113
10.2653
10.1444
10.0086
9.81529
9.50244
8.83211
1094.71
1024.14
8.14362
9.23865
9.91384
10.3807
10.7693
11.1209
11.4412
11.7334
11.9716
12.1408
12.2395
12.2866
12.3014
12.3079
12.4048
12.7636
13.3464
13.9603
14.4418
14.7365
14.8594
14.8289
14.6332
14.2533
13.6376
12.6991
11.5137
10.5493
10.187
10.0193
9.847
9.55724
8.91678
1095.15
1024.04
8.08316
9.1661
9.83941
10.3085
10.7038
11.0714
11.4222
11.7447
12.0258
12.2361
12.3564
12.3861
12.3503
12.2925
12.256
12.2997
12.6155
13.2085
13.836
14.3213
14.649
14.8025
14.7836
14.6075
14.2379
13.6257
12.6907
11.5351
10.5951
10.1174
9.86117
9.59226
9.08128
1095.97
1024.07
8.07139
9.1396
9.79907
10.2637
10.6642
11.0472
11.4229
11.7921
12.123
12.3827
12.5458
12.6011
12.5593
12.4485
12.3209
12.2644
12.3662
12.7693
13.3362
13.8672
14.2897
14.5702
14.6928
14.6394
14.4313
14.0327
13.3738
12.4119
11.3144
10.4992
10.0498
9.70607
9.18106
1096.16
1024.09
8.05902
9.10145
9.74179
10.195
10.5937
10.9885
11.3938
11.8026
12.1897
12.5077
12.7216
12.8108
12.7778
12.6469
12.4564
12.2683
12.2081
12.4009
12.8971
13.4599
13.9358
14.2699
14.4614
14.5137
14.3822
14.0167
13.3789
12.4978
11.5431
10.773
10.2466
9.79658
9.17218
1095.91
1024.02
8.05021
9.09066
9.70384
10.1356
10.5206
10.9165
11.3457
11.8045
12.2562
12.643
12.9293
13.0835
13.0948
12.972
12.7422
12.4533
12.2008
12.1512
12.4236
12.9748
13.5118
13.8982
14.1138
14.161
14.0322
13.707
13.1476
12.372
11.5352
10.8555
10.3311
9.80311
9.03315
1094.86
1024.02
8.07228
9.09376
9.67898
10.0841
10.4518
10.8439
11.2883
11.7838
12.2831
12.7367
13.0924
13.3171
13.4017
13.348
13.1633
12.868
12.4951
12.1597
12.0892
12.3777
12.8631
13.2836
13.565
13.6669
13.5833
13.2878
12.7868
12.1409
11.4771
10.8973
10.3708
9.75247
8.77449
1094.22
1024
8.09864
9.10071
9.65128
10.0258
10.367
10.744
11.1965
11.7296
12.2849
12.7981
13.2263
13.5216
13.6895
13.7193
13.6111
13.3731
13.0157
12.5708
12.1621
12.0531
12.2674
12.6235
12.9163
13.0627
13.0429
12.8374
12.4611
11.9667
11.44
10.936
10.4254
9.76979
8.73733
1094.15
1024.09
8.1749
9.13816
9.64187
9.9825
10.2952
10.6505
11.101
11.6536
12.2448
12.8025
13.2803
13.664
13.9209
14.0495
14.0474
13.9108
13.6476
13.2633
12.7775
12.2898
12.0801
12.1565
12.398
12.5963
12.642
12.5207
12.2329
11.8349
11.3948
10.9404
10.4593
9.81601
8.75492
1094.24
1024.35
8.26805
9.16295
9.63412
9.94469
10.2263
10.5489
10.9776
11.5306
12.149
12.7498
13.275
13.6945
14.0255
14.248
14.3417
14.3197
14.1806
13.9288
13.5636
13.0791
12.5159
12.1458
12.0687
12.1629
12.2743
12.2581
12.0861
11.7815
11.4013
10.9836
10.5245
9.91238
8.8965
1094.69
1024.5
8.27488
9.16446
9.614
9.9015
10.1481
10.4142
10.77
11.2731
11.8986
12.5533
13.1512
13.6461
14.0357
14.3273
14.5232
14.5949
14.5586
14.4215
14.1884
13.8464
13.3609
12.7276
12.1975
12.0115
12.0056
12.0164
11.9396
11.7235
11.4087
11.0405
10.6139
10.0406
9.0913
1095.18
1024.54
8.26725
9.14437
9.59243
9.87518
10.0989
10.3037
10.5544
10.9341
11.4912
12.1697
12.8473
13.4401
13.9309
14.3104
14.5738
14.7308
14.7731
14.7165
14.5689
14.3261
13.9603
13.4303
12.7551
12.15
11.928
11.8723
11.8082
11.6474
11.3914
11.0588
10.6666
10.133
9.23029
1095.35
1024.48
8.19842
9.08698
9.55735
9.85809
10.0846
10.2636
10.4252
10.6612
11.0675
11.6787
12.4023
13.095
13.694
14.1759
14.5348
14.772
14.8961
14.9103
14.8251
14.643
14.349
13.9015
13.2551
12.4924
11.9511
11.7837
11.7013
11.5688
11.3479
11.0525
10.6894
10.1864
9.31042
1095.35
1024.33
8.10618
9.0207
9.51526
9.83414
10.0751
10.2587
10.3973
10.5118
10.7138
11.1719
11.851
12.6127
13.3241
13.9144
14.3735
14.7059
14.9175
15.0121
15.0021
14.8876
14.6639
14.301
13.7426
12.9729
12.1946
11.7863
11.6352
11.5029
11.3112
11.0484
10.7124
10.2319
9.36246
1095.37
1024.12
7.99694
8.93816
9.46052
9.80123
10.0613
10.2617
10.4052
10.507
10.5987
10.7319
11.2007
11.9331
12.7364
13.4573
14.0386
14.4784
14.7917
14.9892
15.069
15.0392
14.8991
14.6334
14.2012
13.5497
12.719
11.9792
11.6447
11.4737
11.2882
11.0489
10.7425
10.2964
9.46106
1095.6
1023.94
7.90525
8.86259
9.40611
9.76724
10.0465
10.2654
10.4299
10.5362
10.598
10.656
10.7619
11.2023
11.9911
12.8273
13.5502
14.1194
14.5479
14.8503
15.0271
15.0791
15.0221
14.8482
14.5322
14.028
13.3062
12.4698
11.8019
11.4798
11.2786
11.0471
10.7642
10.3506
9.55297
1095.81
1023.75
7.79945
8.77581
9.33978
9.72042
10.0205
10.2643
10.4538
10.586
10.6597
10.6833
10.7049
10.7916
11.144
11.9493
12.8137
13.5561
14.143
14.5758
14.8588
15.0042
15.0206
14.9271
14.7145
14.3426
13.7639
12.9833
12.1767
11.5989
11.2831
11.0464
10.7734
10.3843
9.61972
1095.93
1023.51
7.67881
8.68934
9.28011
9.67945
9.99554
10.2608
10.4759
10.6395
10.747
10.7887
10.7797
10.7645
10.8314
11.1139
11.8655
12.7558
13.5235
14.1092
14.5174
14.771
14.8904
14.876
14.7275
14.4574
14.0202
13.3635
12.5623
11.8476
11.3702
11.0594
10.7832
10.4055
9.65327
1095.96
1023.3
7.57815
8.61466
9.23096
9.65092
9.98616
10.2652
10.4997
10.6885
10.8271
10.9085
10.9225
10.8786
10.8237
10.8598
11.0986
11.7788
12.6642
13.4319
13.9983
14.3808
14.6085
14.6963
14.6528
14.4571
14.125
13.6127
12.8926
12.1196
11.5138
11.1078
10.8016
10.4257
9.69096
1096.09
1023.2
7.5092
8.56625
9.20992
9.64521
9.99047
10.2862
10.5401
10.752
10.9181
11.0314
11.0807
11.0621
10.9823
10.8838
10.8905
11.1216
11.7643
12.572
13.2927
13.83
14.1865
14.3871
14.4466
14.3705
14.1246
13.7142
13.1311
12.3989
11.7135
11.2132
10.8481
10.4528
9.72627
1096.2
1023.19
7.49261
8.55716
9.20908
9.66119
10.0256
10.3383
10.6106
10.8449
11.0372
11.1799
11.2608
11.2665
11.2009
11.0761
10.9506
10.9581
11.2316
11.8266
12.5395
13.185
13.6582
13.9644
14.1201
14.1338
14.0054
13.6925
13.1653
12.5155
11.8615
11.3334
10.9252
10.4907
9.7388
1096.19
1023.24
7.49329
8.5575
9.21712
9.67647
10.0521
10.3822
10.6784
10.9446
11.1732
11.3543
11.4741
11.5106
11.455
11.3182
11.1378
11.0004
11.0571
11.4235
11.9979
12.6066
13.1347
13.5187
13.7492
13.8304
13.7617
13.5267
13.1103
12.5124
11.9027
11.3913
10.9734
10.5142
9.72393
1095.96
1023.35
7.54327
8.58426
9.2292
9.68753
10.0684
10.4078
10.7179
11.0031
11.2604
11.4851
11.6654
11.7759
11.7789
11.6617
11.4321
11.1871
11.083
11.2429
11.6562
12.1647
12.6465
13.0536
13.3423
13.4878
13.479
13.3034
12.9519
12.4538
11.9054
11.4245
11.0013
10.5115
9.66315
1095.7
1023.48
7.59132
8.60434
9.23438
9.69319
10.0829
10.4296
10.7443
11.0288
11.2828
11.5069
11.6984
11.8439
11.9206
11.9008
11.7606
11.5118
11.2664
11.2415
11.4776
11.8635
12.2747
12.6415
12.9249
13.1052
13.1508
13.0416
12.7692
12.3594
11.8891
11.4384
11.0169
10.5044
9.61204
1095.5
1023.62
7.62098
8.60955
9.23399
9.69293
10.0844
10.4354
10.7547
11.0407
11.2931
11.5136
11.7015
11.8469
11.9302
11.9454
11.8665
11.6997
11.4898
11.3561
11.4213
11.6741
12.001
12.3219
12.5845
12.7593
12.8222
12.7552
12.5496
12.2257
11.8362
11.4328
11.0178
10.4907
9.55505
1095.3
1023.64
7.62266
8.58441
9.19716
9.65977
10.0624
10.4248
10.7514
11.0383
11.2856
11.497
11.6775
11.8254
11.9219
11.9579
11.9343
11.8319
11.6781
11.5183
11.4606
11.5638
11.8
12.0705
12.3098
12.481
12.5569
12.5229
12.3704
12.1117
11.7824
11.4168
11.018
10.4905
9.53565
1095.16
1023.51
7.53746
8.50436
9.11833
9.58509
9.99592
10.369
10.7047
10.9957
11.2407
11.4456
11.6127
11.746
11.8482
11.9205
11.9424
11.9116
11.8255
11.7004
11.587
11.5568
11.6399
11.8373
12.0602
12.2364
12.331
12.3284
12.2212
12.0137
11.7309
11.3988
11.0198
10.5018
9.54735
1095.16
1023.29
7.44096
8.42096
9.04004
9.51328
9.93417
10.3209
10.6703
10.975
11.2322
11.4414
11.6081
11.7362
11.8285
11.8961
11.9431
11.9608
11.9411
11.8819
11.7919
11.6964
11.6492
11.6873
11.8129
11.9847
12.1124
12.1518
12.0934
11.9311
11.6882
11.3864
11.0278
10.5248
9.58269
1095.26
1023.14
7.36761
8.34782
8.97006
9.4512
9.88424
10.2861
10.6497
10.9684
11.2408
11.4646
11.644
11.7809
11.8767
11.941
11.9875
12.0243
12.0498
12.0509
12.0121
11.9349
11.8372
11.7504
11.7407
11.7818
11.8892
11.9693
11.9622
11.8562
11.6551
11.3836
11.0498
10.57
9.65844
1095.55
1023.05
7.3105
8.28398
8.90558
9.39351
9.83908
10.256
10.634
10.9654
11.2489
11.4918
11.6895
11.8456
11.962
12.0411
12.0958
12.1397
12.1849
12.2235
12.229
12.1876
12.1
11.9784
11.8472
11.7771
11.7654
11.7971
11.8203
11.7655
11.6079
11.3691
11.0583
10.6091
9.74052
1095.82
1022.97
7.24946
8.2146
8.83526
9.32936
9.78681
10.2171
10.6088
10.9532
11.2472
11.4959
11.706
11.8793
12.0186
12.1207
12.192
12.2502
12.3086
12.3679
12.4043
12.3987
12.3438
12.2382
12.0943
11.9367
11.8061
11.7464
11.7088
11.6669
11.5438
11.3372
11.056
10.6379
9.80723
1096
1022.94
7.20805
8.15548
8.7709
9.26953
9.73747
10.18
10.5834
10.9381
11.2416
11.4961
11.7081
11.8861
12.0381
12.1639
12.2709
12.3579
12.4353
12.5083
12.56
12.5748
12.5438
12.4618
12.3311
12.1585
11.9702
11.8013
11.6985
11.5985
11.4816
11.2962
11.0396
10.6423
9.84721
1096.09
1022.93
7.16619
8.09369
8.7049
9.20982
9.68922
10.1438
10.5575
10.9197
11.2278
11.4851
11.6985
11.8766
12.0313
12.1657
12.2861
12.4009
12.5135
12.6164
12.691
12.7249
12.7116
12.6488
12.5356
12.3706
12.1633
11.9459
11.7529
11.598
11.4392
11.2568
11.0146
10.6396
9.86246
1096.11
1022.92
7.11562
8.02179
8.62925
9.14112
9.63279
10.1011
10.5267
10.8972
11.2089
11.4646
11.6714
11.8406
11.9845
12.1127
12.2345
12.3629
12.5005
12.6329
12.7386
12.8033
12.8205
12.786
12.6959
12.5474
12.342
12.0974
11.8527
11.6359
11.4384
11.2288
10.9886
10.6255
9.86228
1096.1
1022.91
7.065
7.94765
8.5518
9.07211
9.57739
10.0607
10.5003
10.8821
11.2008
11.4578
11.6617
11.8207
11.9469
12.0567
12.16
12.281
12.43
12.5909
12.7234
12.8053
12.8416
12.8341
12.778
12.6684
12.4937
12.2571
11.9841
11.7142
11.4651
11.2307
10.9736
10.606
9.84602
1096.05
1022.9
6.99832
7.85893
8.46227
8.9933
9.51463
10.0154
10.4714
10.8674
11.1976
11.4621
11.6644
11.813
11.9214
11.9981
12.0661
12.1552
12.2906
12.4654
12.6304
12.7543
12.8205
12.8307
12.7847
12.6856
12.5361
12.333
12.0766
11.7935
11.5159
11.2503
10.9712
10.5846
9.80164
1095.86
1022.86
6.91995
7.75972
8.36111
8.90169
9.43929
9.95895
10.4356
10.8505
11.196
11.4717
11.6801
11.826
11.9195
11.9714
11.994
12.0285
12.1183
12.279
12.459
12.6124
12.7147
12.7598
12.7479
12.6747
12.53
12.3316
12.0867
11.8146
11.5354
11.2571
10.9613
10.5468
9.71958
1095.6
1022.81
6.82458
7.64722
8.24722
8.79644
9.3497
9.88902
10.3884
10.8264
11.1935
11.4872
11.7078
11.8582
11.9466
11.978
11.9661
11.9383
11.9548
12.0677
12.2379
12.4004
12.5302
12.612
12.6338
12.5939
12.4917
12.3192
12.0881
11.8197
11.5425
11.2599
10.9472
10.5075
9.64164
1095.39
1022.72
6.71553
7.52233
8.11833
8.67255
9.23958
9.79903
10.3235
10.7892
11.1847
11.5064
11.7493
11.9158
12.0113
12.037
11.9996
11.9152
11.8455
11.8645
11.9962
12.1697
12.3182
12.4263
12.485
12.4814
12.4085
12.2658
12.0608
11.8115
11.5374
11.2553
10.9311
10.4675
9.56221
1095.22
1022.61
6.60071
7.3931
7.98205
8.53659
9.11389
9.692
10.2396
10.7336
11.1603
11.5133
11.7939
11.994
12.1174
12.1601
12.124
12.0091
11.8486
11.7197
11.7184
11.8514
12.0291
12.1765
12.2679
12.3079
12.2854
12.1871
12.0178
11.7934
11.5335
11.248
10.9203
10.4488
9.53483
1095.19
1022.48
6.48163
7.25943
7.83718
8.38632
8.96919
9.56264
10.1311
10.6534
11.1135
11.5044
11.8235
12.0692
12.2411
12.331
12.333
12.238
12.0538
11.8134
11.6275
11.582
11.7024
11.8785
12.0175
12.0955
12.11
12.0567
11.9298
11.7418
11.5067
11.2327
10.9141
10.4493
9.53626
1095.22
1022.36
6.37387
7.13646
7.69964
8.23876
8.82301
9.42811
10.0137
10.5567
11.0436
11.468
11.8277
12.1239
12.3531
12.5105
12.5807
12.5532
12.4191
12.1806
11.867
11.6049
11.5274
11.603
11.7647
11.9013
11.9631
11.9481
11.8554
11.6983
11.4872
11.2328
10.92
10.463
9.56847
1095.42
1022.27
6.28272
7.02761
7.57332
8.09955
8.68264
9.29681
9.89602
10.4531
10.9593
11.4085
11.8003
12.1357
12.4189
12.6426
12.7944
12.8569
12.816
12.6692
12.4141
12.0688
11.7166
11.5799
11.5881
11.6814
11.7964
11.8451
11.8109
11.6859
11.4944
11.2512
10.9512
10.5073
9.64196
1095.77
1022.21
6.22075
6.94611
7.47266
7.98592
8.56834
9.19074
9.80132
10.3681
10.8852
11.3492
11.7615
12.1256
12.4466
12.7229
12.9437
13.0898
13.14
13.0922
12.9348
12.661
12.2809
11.857
11.6173
11.6041
11.6465
11.7056
11.7151
11.6537
11.5016
11.2831
10.9984
10.5728
9.74671
1096.22
1022.2
6.17691
6.88045
7.38746
7.88794
8.47072
9.10311
9.72638
10.3035
10.8284
11.3015
11.7257
12.1063
12.4506
12.7607
13.0284
13.2359
13.3627
13.4
13.3426
13.1722
12.8833
12.4919
12.08
11.7586
11.6642
11.6837
11.6803
11.6261
11.505
11.3137
11.0508
10.6476
9.86306
1096.66
1022.23
6.17053
6.84316
7.32733
7.81576
8.39883
9.04056
9.67612
10.263
10.7943
11.2725
11.7023
12.0908
12.4471
12.7756
13.0719
13.3205
13.5022
13.6043
13.6181
13.5387
13.3405
13.0201
12.6054
12.1869
11.8887
11.7365
11.6885
11.6313
11.5145
11.3353
11.0911
10.7122
9.96125
1096.93
1022.28
6.1717
6.8136
7.27576
7.75394
8.34231
8.99832
9.64742
10.2439
10.7812
11.2624
11.6944
12.0861
12.4476
12.7847
13.0932
13.3641
13.5831
13.7286
13.7917
13.7666
13.6362