/*--------------------------------*- C++ -*----------------------------------*\
| =========                 |                                                 |
| \\      /  F ield         | OpenFOAM: The Open Source CFD Toolbox           |
|  \\    /   O peration     | Version:  2.0.x                                 |
|   \\  /    A nd           | Web:      www.OpenFOAM.org                      |
|    \\/     M anipulation  |                                                 |
\*---------------------------------------------------------------------------*/
FoamFile
{
    version     2.0;
    format      ascii;
    class       surfaceScalarField;
    location    "600";
    object      phi;
}
// * * * * * * * * * * * * * * * * * * * * * * * * * * * * * * * * * * * * * //

dimensions      [1 0 -1 0 0 0 0];

internalField   nonuniform List<scalar> 
228225
(
-6.0508e-06
3.73044e-06
2.25667e-06
-1.36287e-05
3.94863e-06
3.62929e-06
-1.96836e-05
2.29989e-06
3.75503e-06
-2.31238e-05
-2.04185e-07
3.64448e-06
-2.33304e-05
-3.26767e-06
3.47429e-06
-2.12147e-05
-5.46114e-06
3.34553e-06
-1.75809e-05
-6.84964e-06
3.21587e-06
-1.29377e-05
-7.77219e-06
3.12906e-06
-7.64296e-06
-8.36209e-06
3.06741e-06
-1.98407e-06
-8.68884e-06
3.03002e-06
3.82683e-06
-8.81929e-06
3.00846e-06
9.6289e-06
-8.80319e-06
3.0012e-06
1.53145e-05
-8.69122e-06
3.00567e-06
2.07507e-05
-8.46712e-06
3.03101e-06
2.58764e-05
-8.22333e-06
3.09776e-06
3.06515e-05
-7.91221e-06
3.13714e-06
3.50345e-05
-7.54514e-06
3.16222e-06
3.89871e-05
-7.13143e-06
3.17884e-06
4.24665e-05
-6.67068e-06
3.19132e-06
4.5462e-05
-6.19177e-06
3.19639e-06
4.78622e-05
-5.61308e-06
3.21295e-06
4.97516e-05
-5.08128e-06
3.19189e-06
5.09128e-05
-4.36347e-06
3.20235e-06
5.15538e-05
-3.85276e-06
3.21181e-06
5.15018e-05
-3.17908e-06
3.23109e-06
5.07247e-05
-2.47225e-06
3.24941e-06
4.91682e-05
-1.72596e-06
3.2825e-06
4.67989e-05
-9.25097e-07
3.29449e-06
4.32175e-05
2.43362e-07
3.33812e-06
3.88033e-05
1.04271e-06
3.3715e-06
3.32961e-05
2.09705e-06
3.41028e-06
2.64604e-05
3.36821e-06
3.46751e-06
1.81063e-05
4.80218e-06
3.55212e-06
8.44469e-06
6.13693e-06
3.5249e-06
6.19109e-06
2.2536e-06
4.52593e-08
2.23165e-06
1.4535e-06
-1.62672e-06
2.92726e-06
2.69333e-06
-3.07195e-06
6.77491e-07
3.06761e-06
-3.26577e-06
-3.00876e-06
2.99837e-06
-1.93859e-06
-7.34076e-06
2.74588e-06
4.22467e-07
-1.03199e-05
2.49771e-06
3.49394e-06
-1.21286e-05
2.20747e-06
6.87919e-06
-1.31963e-05
2.03891e-06
1.03496e-05
-1.37566e-05
1.92409e-06
1.3764e-05
-1.39569e-05
1.85367e-06
1.70638e-05
-1.39239e-05
1.80485e-06
2.01786e-05
-1.37034e-05
1.78538e-06
2.31113e-05
-1.34067e-05
1.78276e-06
2.58399e-05
-1.29893e-05
1.79364e-06
2.83239e-05
-1.24799e-05
1.77258e-06
3.05529e-05
-1.19049e-05
1.76373e-06
3.25166e-05
-1.12739e-05
1.76512e-06
3.4204e-05
-1.05932e-05
1.77441e-06
3.56095e-05
-9.86603e-06
1.7898e-06
3.67058e-05
-9.09803e-06
1.81001e-06
3.75458e-05
-8.28874e-06
1.83572e-06
3.79078e-05
-7.34126e-06
1.89807e-06
3.80382e-05
-6.44134e-06
1.9475e-06
3.77068e-05
-5.50631e-06
1.98492e-06
3.70026e-05
-4.50223e-06
2.02745e-06
3.59142e-05
-3.46862e-06
2.08485e-06
3.44111e-05
-2.37483e-06
2.15202e-06
3.23805e-05
-1.12502e-06
2.23059e-06
2.95253e-05
7.47719e-07
2.35093e-06
2.62494e-05
1.84439e-06
2.47439e-06
2.22365e-05
3.47357e-06
2.63649e-06
1.71726e-05
5.62661e-06
2.80557e-06
1.08762e-05
8.13503e-06
2.96373e-06
4.2913e-06
9.8689e-06
2.85313e-06
8.71517e-06
1.76723e-06
1.35063e-06
-1.06447e-07
9.87559e-07
4.42017e-06
-2.01554e-06
1.87336e-06
8.70172e-06
-5.70635e-06
2.10239e-06
1.31003e-05
-9.49385e-06
2.08655e-06
1.62562e-05
-1.24534e-05
1.95688e-06
1.85211e-05
-1.43467e-05
1.76193e-06
2.02292e-05
-1.53987e-05
1.56212e-06
2.15015e-05
-1.58932e-05
1.42449e-06
2.24175e-05
-1.60532e-05
1.38063e-06
2.30982e-05
-1.59757e-05
1.33817e-06
2.36433e-05
-1.57817e-05
1.31273e-06
2.41054e-05
-1.54543e-05
1.28888e-06
2.44606e-05
-1.50315e-05
1.2696e-06
2.47718e-05
-1.45316e-05
1.2312e-06
2.50394e-05
-1.39618e-05
1.21429e-06
2.5251e-05
-1.33283e-05
1.21182e-06
2.53916e-05
-1.2636e-05
1.22154e-06
2.5447e-05
-1.1888e-05
1.23941e-06
2.54043e-05
-1.10862e-05
1.2629e-06
2.52461e-05
-1.02316e-05
1.29189e-06
2.49575e-05
-9.32531e-06
1.32516e-06
2.46171e-05
-8.36079e-06
1.35997e-06
2.41089e-05
-7.32537e-06
1.39228e-06
2.33888e-05
-6.22586e-06
1.43975e-06
2.24437e-05
-5.06181e-06
1.50473e-06
2.13191e-05
-3.89533e-06
1.55134e-06
2.00468e-05
-2.71777e-06
1.61538e-06
1.85171e-05
-1.2947e-06
1.69948e-06
1.68404e-05
6.15429e-07
1.80903e-06
1.48957e-05
1.86794e-06
1.92124e-06
1.2423e-05
3.88864e-06
2.05781e-06
9.27223e-06
6.5538e-06
2.22369e-06
5.4588e-06
9.57862e-06
2.36996e-06
1.93017e-06
1.11006e-05
2.29712e-06
9.29815e-06
1.34719e-06
4.87066e-07
-1.38823e-06
7.94661e-07
2.95167e-06
-5.83193e-06
1.35173e-06
6.06502e-06
-1.01946e-05
1.37487e-06
8.84589e-06
-1.34261e-05
1.15138e-06
1.07299e-05
-1.52751e-05
9.37679e-07
1.19594e-05
-1.632e-05
7.43752e-07
1.265e-05
-1.68509e-05
7.61545e-07
1.31142e-05
-1.71022e-05
7.44806e-07
1.35652e-05
-1.71751e-05
6.70901e-07
1.4063e-05
-1.7096e-05
6.22606e-07
1.45566e-05
-1.69021e-05
6.26758e-07
1.50496e-05
-1.65855e-05
6.38145e-07
1.55378e-05
-1.61714e-05
6.51664e-07
1.60063e-05
-1.56681e-05
6.67998e-07
1.64418e-05
-1.50834e-05
6.86151e-07
1.68306e-05
-1.44238e-05
7.06779e-07
1.7159e-05
-1.36955e-05
7.31043e-07
1.74122e-05
-1.29031e-05
7.61859e-07
1.75769e-05
-1.20505e-05
7.99665e-07
1.76443e-05
-1.11416e-05
8.42501e-07
1.7607e-05
-1.01777e-05
8.89681e-07
1.7453e-05
-9.15071e-06
9.43978e-07
1.71408e-05
-8.03337e-06
1.02015e-06
1.66511e-05
-6.84424e-06
1.10813e-06
1.59857e-05
-5.58059e-06
1.18409e-06
1.51154e-05
-4.28008e-06
1.25503e-06
1.40754e-05
-3.00512e-06
1.32734e-06
1.28943e-05
-1.52846e-06
1.4149e-06
1.16821e-05
3.0602e-07
1.52159e-06
1.02644e-05
1.64582e-06
1.63982e-06
8.5045e-06
3.8619e-06
1.78658e-06
6.19377e-06
6.91764e-06
1.94685e-06
3.40238e-06
1.02744e-05
2.09558e-06
9.86059e-07
1.15799e-05
1.93696e-06
9.28102e-06
1.00318e-06
7.03299e-07
-2.5661e-06
4.7457e-07
2.41727e-06
-8.20193e-06
6.56029e-07
4.16352e-06
-1.25013e-05
5.60467e-07
5.415e-06
-1.51243e-05
4.46713e-07
6.37474e-06
-1.66151e-05
3.80237e-07
7.17277e-06
-1.74707e-05
3.52633e-07
7.95942e-06
-1.79693e-05
3.31802e-07
8.74634e-06
-1.82196e-05
3.30556e-07
9.46505e-06
-1.82736e-05
3.79794e-07
1.01285e-05
-1.81533e-05
3.93825e-07
1.07555e-05
-1.79056e-05
3.76464e-07
1.13246e-05
-1.75315e-05
3.76844e-07
1.18204e-05
-1.70583e-05
3.91128e-07
1.22316e-05
-1.64985e-05
4.19201e-07
1.25564e-05
-1.58616e-05
4.53387e-07
1.27958e-05
-1.51555e-05
4.92164e-07
1.29525e-05
-1.43862e-05
5.34009e-07
1.30293e-05
-1.35575e-05
5.77587e-07
1.30286e-05
-1.26719e-05
6.22016e-07
1.29517e-05
-1.17314e-05
6.66742e-07
1.27992e-05
-1.07373e-05
7.12102e-07
1.25756e-05
-9.68842e-06
7.61272e-07
1.23003e-05
-8.57724e-06
8.19117e-07
1.19586e-05
-7.39006e-06
8.87498e-07
1.15377e-05
-6.12362e-06
9.63966e-07
1.10229e-05
-4.80049e-06
1.03515e-06
1.03556e-05
-3.45584e-06
1.11801e-06
9.61501e-06
-1.9971e-06
1.20924e-06
8.84737e-06
-2.34624e-07
1.30827e-06
7.85253e-06
1.21473e-06
1.42591e-06
6.5957e-06
3.53902e-06
1.57969e-06
4.76872e-06
6.98769e-06
1.75691e-06
2.61753e-06
1.05663e-05
1.85924e-06
7.36084e-07
1.17713e-05
1.68999e-06
9.15011e-06
8.66993e-07
6.0444e-07
-3.52333e-06
3.52759e-07
1.75286e-06
-9.80462e-06
4.54239e-07
2.9408e-06
-1.40639e-05
3.74651e-07
4.02325e-06
-1.64947e-05
2.8794e-07
4.97629e-06
-1.77953e-05
2.27208e-07
5.80462e-06
-1.84975e-05
1.98437e-07
6.52277e-06
-1.88684e-05
1.80848e-07
7.14092e-06
-1.90052e-05
1.67432e-07
7.68014e-06
-1.89702e-05
1.57379e-07
8.16031e-06
-1.87937e-05
1.60218e-07
8.56783e-06
-1.84921e-05
1.78892e-07
8.93076e-06
-1.80923e-05
1.9791e-07
9.25815e-06
-1.76043e-05
2.18651e-07
9.55452e-06
-1.70351e-05
2.40139e-07
9.81685e-06
-1.63917e-05
2.67802e-07
1.00421e-05
-1.5682e-05
3.01278e-07
1.02252e-05
-1.4909e-05
3.39728e-07
1.03591e-05
-1.40738e-05
3.82352e-07
1.04364e-05
-1.31776e-05
4.28418e-07
1.04496e-05
-1.22227e-05
4.78082e-07
1.03896e-05
-1.12105e-05
5.33197e-07
1.02445e-05
-1.01395e-05
5.96095e-07
1.0008e-05
-9.00699e-06
6.66202e-07
9.68908e-06
-7.81117e-06
7.39968e-07
9.31155e-06
-6.55427e-06
8.08109e-07
8.87197e-06
-5.24801e-06
8.87006e-07
8.36507e-06
-3.92203e-06
9.72982e-07
7.87919e-06
-2.5724e-06
1.06106e-06
7.38966e-06
-9.0305e-07
1.15782e-06
6.37996e-06
9.59749e-07
1.26453e-06
5.3246e-06
3.2034e-06
1.39078e-06
3.83545e-06
6.95551e-06
1.52117e-06
2.11822e-06
1.06826e-05
1.60076e-06
5.58107e-07
1.18537e-05
1.47751e-06
8.96159e-06
7.4662e-07
3.13213e-07
-4.03282e-06
1.96216e-07
9.67165e-07
-1.06121e-05
1.53518e-07
1.71209e-06
-1.48358e-05
2.6902e-08
2.49028e-06
-1.72085e-05
-6.44562e-08
3.24679e-06
-1.84474e-05
-1.04475e-07
3.95888e-06
-1.90984e-05
-1.11226e-07
4.62116e-06
-1.94258e-05
-1.04878e-07
5.25277e-06
-1.95417e-05
-9.51197e-08
5.86533e-06
-1.94986e-05
-8.42468e-08
6.46184e-06
-1.93168e-05
-7.34274e-08
7.04119e-06
-1.90111e-05
-6.03387e-08
7.59247e-06
-1.86011e-05
-4.24835e-08
8.10588e-06
-1.80988e-05
-1.89453e-08
8.57431e-06
-1.75135e-05
9.93364e-09
8.99193e-06
-1.6855e-05
4.56474e-08
9.3596e-06
-1.61378e-05
8.81222e-08
9.66933e-06
-1.53534e-05
1.34613e-07
9.9076e-06
-1.44975e-05
1.85424e-07
1.00628e-05
-1.35739e-05
2.41102e-07
1.01297e-05
-1.2592e-05
3.02209e-07
1.01076e-05
-1.15575e-05
3.69125e-07
9.99809e-06
-1.0472e-05
4.41858e-07
9.80414e-06
-9.33216e-06
5.19079e-07
9.5293e-06
-8.1342e-06
5.97814e-07
9.18245e-06
-6.87852e-06
6.71034e-07
8.76234e-06
-5.57842e-06
7.50457e-07
8.27912e-06
-4.27145e-06
8.3257e-07
7.7563e-06
-2.96513e-06
9.15456e-07
7.18666e-06
-1.34097e-06
1.00744e-06
6.14489e-06
8.94661e-07
1.10673e-06
5.03807e-06
3.09361e-06
1.21646e-06
3.64416e-06
7.00556e-06
1.34372e-06
2.05412e-06
1.08442e-05
1.42834e-06
6.21718e-07
1.20042e-05
1.28173e-06
8.94832e-06
6.3498e-07
3.71658e-07
-4.52064e-06
1.161e-07
1.09136e-06
-1.13829e-05
5.09912e-08
1.92789e-06
-1.5623e-05
-4.9318e-08
2.75985e-06
-1.79299e-05
-1.10567e-07
3.55498e-06
-1.91104e-05
-1.32165e-07
4.31753e-06
-1.97227e-05
-1.38267e-07
5.05268e-06
-2.00215e-05
-1.39408e-07
5.76082e-06
-2.01085e-05
-1.41365e-07
6.44249e-06
-2.00365e-05
-1.43744e-07
7.08819e-06
-1.98167e-05
-1.45808e-07
7.70046e-06
-1.94781e-05
-1.45284e-07
8.27524e-06
-1.90352e-05
-1.40775e-07
8.80761e-06
-1.85002e-05
-1.31025e-07
9.2917e-06
-1.78827e-05
-1.14927e-07
9.71532e-06
-1.71846e-05
-9.41115e-08
1.00525e-05
-1.64059e-05
-6.91482e-08
1.02916e-05
-1.55561e-05
-3.64451e-08
1.04349e-05
-1.46475e-05
6.70649e-09
1.04911e-05
-1.36902e-05
6.01289e-08
1.0466e-05
-1.26895e-05
1.2258e-07
1.03626e-05
-1.16471e-05
1.93083e-07
1.01834e-05
-1.05634e-05
2.70577e-07
9.93044e-06
-9.43318e-06
3.53892e-07
9.60763e-06
-8.25197e-06
4.40528e-07
9.22424e-06
-7.01958e-06
5.24391e-07
8.77563e-06
-5.74451e-06
6.1465e-07
8.24586e-06
-4.44898e-06
7.07214e-07
7.6002e-06
-3.12059e-06
8.0102e-07
6.80548e-06
-1.4489e-06
9.02545e-07
5.84298e-06
8.52416e-07
1.00462e-06
4.687e-06
3.14164e-06
1.10782e-06
3.33513e-06
7.13982e-06
1.21751e-06
1.84935e-06
1.10209e-05
1.30897e-06
5.40503e-07
1.21624e-05
1.15044e-06
8.933e-06
5.55822e-07
2.70486e-07
-4.82516e-06
3.39469e-08
9.11025e-07
-1.19252e-05
-9.82661e-08
1.72204e-06
-1.6208e-05
-2.26115e-07
2.58961e-06
-1.84972e-05
-3.00305e-07
3.45131e-06
-1.96508e-05
-3.21359e-07
4.28539e-06
-2.02392e-05
-3.17569e-07
5.08403e-06
-2.05164e-05
-3.03798e-07
5.84709e-06
-2.05826e-05
-2.89062e-07
6.58044e-06
-2.04935e-05
-2.76368e-07
7.28409e-06
-2.02535e-05
-2.66832e-07
7.95501e-06
-1.98901e-05
-2.58904e-07
8.58737e-06
-1.94164e-05
-2.51107e-07
9.17353e-06
-1.88447e-05
-2.41659e-07
9.7081e-06
-1.81888e-05
-2.28419e-07
1.01662e-05
-1.74343e-05
-2.08399e-07
1.05244e-05
-1.65848e-05
-1.79255e-07
1.07785e-05
-1.56663e-05
-1.43967e-07
1.09254e-05
-1.47022e-05
-9.22621e-08
1.09717e-05
-1.36979e-05
-3.86122e-08
1.09212e-05
-1.26596e-05
2.03927e-08
1.07829e-05
-1.15944e-05
8.56161e-08
1.05633e-05
-1.05009e-05
1.57063e-07
1.0263e-05
-9.36706e-06
2.34101e-07
9.88584e-06
-8.18966e-06
3.14821e-07
9.44111e-06
-6.96934e-06
3.94445e-07
8.92394e-06
-5.70669e-06
4.79285e-07
8.30433e-06
-4.39485e-06
5.65403e-07
7.50292e-06
-2.97244e-06
6.5317e-07
6.45822e-06
-1.1506e-06
7.46285e-07
5.51977e-06
9.46043e-07
8.44705e-07
4.38309e-06
3.33458e-06
9.43616e-07
3.05728e-06
7.40979e-06
1.05572e-06
1.69787e-06
1.12653e-05
1.11488e-06
4.98641e-07
1.23717e-05
9.89854e-07
8.97056e-06
4.61078e-07
3.43051e-07
-5.15285e-06
-1.54391e-08
1.09446e-06
-1.25246e-05
-1.52116e-07
2.02982e-06
-1.68872e-05
-2.56194e-07
3.0026e-06
-1.91609e-05
-3.09106e-07
3.95411e-06
-2.02773e-05
-3.24974e-07
4.86859e-06
-2.08287e-05
-3.24968e-07
5.74042e-06
-2.10681e-05
-3.20103e-07
6.56432e-06
-2.10919e-05
-3.14529e-07
7.34034e-06
-2.09599e-05
-3.09672e-07
8.06329e-06
-2.06691e-05
-3.07394e-07
8.73035e-06
-2.0251e-05
-3.06189e-07
9.33652e-06
-1.97173e-05
-3.05319e-07
9.87071e-06
-1.90749e-05
-3.03979e-07
1.03063e-05
-1.83223e-05
-3.02153e-07
1.0654e-05
-1.74884e-05
-2.93537e-07
1.0942e-05
-1.65944e-05
-2.78441e-07
1.11735e-05
-1.56466e-05
-2.51207e-07
1.13373e-05
-1.46397e-05
-2.26341e-07
1.1399e-05
-1.35694e-05
-1.90162e-07
1.13382e-05
-1.24537e-05
-1.45057e-07
1.11566e-05
-1.1322e-05
-9.08716e-08
1.08673e-05
-1.01842e-05
-2.73421e-08
1.04886e-05
-9.03374e-06
4.54077e-08
1.00364e-05
-7.86337e-06
1.25924e-07
9.51881e-06
-6.66163e-06
2.09919e-07
8.92779e-06
-5.41825e-06
3.02604e-07
8.23105e-06
-4.10081e-06
4.02742e-07
7.36348e-06
-2.61358e-06
5.0874e-07
6.31732e-06
-7.26961e-07
6.2256e-07
5.44031e-06
1.09135e-06
7.31749e-07
4.24795e-06
3.68503e-06
8.4198e-07
2.92027e-06
7.79063e-06
9.46898e-07
1.60105e-06
1.15879e-05
9.96657e-07
4.60786e-07
1.26386e-05
8.73462e-07
9.02819e-06
4.03157e-07
3.57742e-07
-5.44619e-06
-6.44623e-08
1.14617e-06
-1.30821e-05
-2.30879e-07
2.10246e-06
-1.74963e-05
-3.47242e-07
3.0891e-06
-1.97378e-05
-4.09739e-07
4.05422e-06
-2.08137e-05
-4.28756e-07
4.98127e-06
-2.13288e-05
-4.26939e-07
5.86189e-06
-2.15327e-05
-4.16111e-07
6.69261e-06
-2.15201e-05
-4.02549e-07
7.45839e-06
-2.13362e-05
-3.89497e-07
8.16618e-06
-2.09974e-05
-3.79541e-07
8.81296e-06
-2.05258e-05
-3.72038e-07
9.39605e-06
-1.99338e-05
-3.66627e-07
9.89843e-06
-1.92145e-05
-3.62787e-07
1.03206e-05
-1.83908e-05
-3.536e-07
1.06745e-05
-1.75034e-05
-3.38976e-07
1.09578e-05
-1.65527e-05
-3.25008e-07
1.11634e-05
-1.5541e-05
-3.11163e-07
1.1276e-05
-1.44574e-05
-2.94777e-07
1.12762e-05
-1.32975e-05
-2.72189e-07
1.11466e-05
-1.20826e-05
-2.41526e-07
1.08838e-05
-1.08574e-05
-2.01715e-07
1.04979e-05
-9.64583e-06
-1.52491e-07
1.00138e-05
-8.45614e-06
-9.34634e-08
9.45913e-06
-7.28343e-06
-2.53192e-08
8.85847e-06
-6.10989e-06
4.89253e-08
8.21499e-06
-4.90979e-06
1.3501e-07
7.51294e-06
-3.62873e-06
2.2997e-07
6.73461e-06
-2.17128e-06
3.36035e-07
5.94125e-06
-3.87894e-07
4.54302e-07
5.12414e-06
1.34071e-06
5.67751e-07
3.9272e-06
4.19151e-06
6.90477e-07
2.63816e-06
8.28122e-06
7.98463e-07
1.42061e-06
1.19502e-05
8.55344e-07
3.92769e-07
1.29151e-05
7.51304e-07
9.08317e-06
3.37802e-07
3.86759e-07
-5.74452e-06
-8.84636e-08
1.19845e-06
-1.36504e-05
-2.43491e-07
2.16353e-06
-1.81241e-05
-3.37254e-07
3.14511e-06
-2.03333e-05
-3.86173e-07
4.10133e-06
-2.13629e-05
-4.07026e-07
5.02158e-06
-2.18331e-05
-4.15982e-07
5.89639e-06
-2.1989e-05
-4.18468e-07
6.72061e-06
-2.19276e-05
-4.16738e-07
7.4764e-06
-2.16768e-05
-4.15128e-07
8.16075e-06
-2.12683e-05
-4.13418e-07
8.76351e-06
-2.0716e-05
-4.12524e-07
9.26224e-06
-2.00199e-05
-4.12616e-07
9.67936e-06
-1.92234e-05
-4.08221e-07
1.00419e-05
-1.83479e-05
-4.05443e-07
1.03439e-05
-1.73969e-05
-4.08403e-07
1.05695e-05
-1.63699e-05
-4.08408e-07
1.07078e-05
-1.52749e-05
-4.04264e-07
1.07566e-05
-1.41118e-05
-3.94405e-07
1.07099e-05
-1.28724e-05
-3.78377e-07
1.05607e-05
-1.15785e-05
-3.54934e-07
1.03078e-05
-1.02816e-05
-3.22858e-07
9.95371e-06
-9.01034e-06
-2.813e-07
9.50499e-06
-7.77694e-06
-2.30404e-07
8.97738e-06
-6.58471e-06
-1.7104e-07
8.39853e-06
-5.42484e-06
-1.06118e-07
7.78479e-06
-4.26474e-06
-3.12027e-08
7.13397e-06
-3.03267e-06
5.4888e-08
6.41448e-06
-1.60729e-06
1.55652e-07
5.63291e-06
1.18976e-07
2.74866e-07
4.74003e-06
1.8395e-06
3.94321e-07
3.57857e-06
4.82122e-06
5.31995e-07
2.34586e-06
8.85828e-06
6.5585e-07
1.22765e-06
1.2346e-05
7.22599e-07
3.06852e-07
1.31976e-05
6.38669e-07
9.11602e-06
2.74004e-07
4.03259e-07
-6.03205e-06
-1.15718e-07
1.20973e-06
-1.41771e-05
-2.79729e-07
2.14232e-06
-1.86807e-05
-3.75971e-07
3.08023e-06
-2.08445e-05
-4.26688e-07
3.98964e-06
-2.18253e-05
-4.46991e-07
4.86127e-06
-2.22501e-05
-4.54642e-07
5.68526e-06
-2.23569e-05
-4.56083e-07
6.45667e-06
-2.22451e-05
-4.53891e-07
7.16277e-06
-2.19308e-05
-4.52104e-07
7.79284e-06
-2.14476e-05
-4.50685e-07
8.32649e-06
-2.07993e-05
-4.50301e-07
8.78093e-06
-2.00253e-05
-4.4902e-07
9.1624e-06
-1.91544e-05
-4.50458e-07
9.45403e-06
-1.81864e-05
-4.53077e-07
9.64283e-06
-1.71316e-05
-4.54082e-07
9.73376e-06
-1.60078e-05
-4.52946e-07
9.73827e-06
-1.48303e-05
-4.49107e-07
9.67019e-06
-1.36018e-05
-4.41893e-07
9.53784e-06
-1.23097e-05
-4.3024e-07
9.33806e-06
-1.09655e-05
-4.13114e-07
9.07074e-06
-9.62409e-06
-3.90106e-07
8.7412e-06
-8.32141e-06
-3.5935e-07
8.35322e-06
-7.0686e-06
-3.20322e-07
7.90974e-06
-5.86712e-06
-2.74052e-07
7.41487e-06
-4.70727e-06
-2.22647e-07
6.86983e-06
-3.55803e-06
-1.61602e-07
6.27259e-06
-2.34514e-06
-9.02086e-08
5.59402e-06
-9.24502e-07
-4.13836e-09
4.93792e-06
6.73802e-07
1.01382e-07
4.08224e-06
2.48155e-06
2.13765e-07
3.04066e-06
5.50498e-06
3.57975e-07
1.93198e-06
9.46829e-06
4.98784e-07
9.5456e-07
1.27424e-05
5.81138e-07
1.7999e-07
1.34566e-05
5.15674e-07
9.10683e-06
1.89196e-07
3.9059e-07
-6.29954e-06
-1.23057e-07
1.1562e-06
-1.46735e-05
-2.692e-07
2.03438e-06
-1.92117e-05
-3.47133e-07
2.9169e-06
-2.13374e-05
-3.89589e-07
3.77582e-06
-2.2272e-05
-4.12225e-07
4.60252e-06
-2.26492e-05
-4.27554e-07
5.38446e-06
-2.27004e-05
-4.38444e-07
6.11088e-06
-2.25257e-05
-4.45804e-07
6.76334e-06
-2.21298e-05
-4.53413e-07
7.31388e-06
-2.15371e-05
-4.61085e-07
7.77662e-06
-2.07932e-05
-4.68787e-07
8.15494e-06
-1.99261e-05
-4.77482e-07
8.4208e-06
-1.89338e-05
-4.86371e-07
8.56933e-06
-1.78405e-05
-4.94391e-07
8.61355e-06
-1.6675e-05
-5.00749e-07
8.57273e-06
-1.54624e-05
-5.04524e-07
8.4664e-06
-1.42189e-05
-5.04968e-07
8.31296e-06
-1.29469e-05
-5.01428e-07
8.12886e-06
-1.16325e-05
-4.93069e-07
7.90998e-06
-1.02675e-05
-4.79081e-07
7.6499e-06
-8.90482e-06
-4.59123e-07
7.35271e-06
-7.59098e-06
-4.33155e-07
7.0211e-06
-6.33604e-06
-4.00856e-07
6.65569e-06
-5.1378e-06
-3.63827e-07
6.25019e-06
-3.98126e-06
-3.20398e-07
5.79339e-06
-2.83334e-06
-2.67778e-07
5.28178e-06
-1.62849e-06
-2.04903e-07
4.7349e-06
-2.50429e-07
-1.27039e-07
4.26227e-06
1.18544e-06
-3.88123e-08
3.49885e-06
3.18046e-06
6.47722e-08
2.55706e-06
6.24509e-06
2.01948e-07
1.57006e-06
1.01098e-05
3.45727e-07
7.40242e-07
1.31321e-05
4.40424e-07
1.1039e-07
1.36842e-05
4.02595e-07
9.06982e-06
1.47399e-07
3.78017e-07
-6.54278e-06
-1.34659e-07
1.09309e-06
-1.51099e-05
-2.78619e-07
1.90118e-06
-1.96652e-05
-3.54509e-07
2.70801e-06
-2.17487e-05
-3.9543e-07
3.4916e-06
-2.26393e-05
-4.16249e-07
4.24463e-06
-2.29719e-05
-4.30334e-07
4.95491e-06
-2.29693e-05
-4.41264e-07
5.60268e-06
-2.27232e-05
-4.50209e-07
6.1681e-06
-2.22351e-05
-4.60068e-07
6.64781e-06
-2.15448e-05
-4.71972e-07
7.03269e-06
-2.06942e-05
-4.83805e-07
7.28747e-06
-1.96848e-05
-4.95984e-07
7.41062e-06
-1.85494e-05
-5.07514e-07
7.41796e-06
-1.73303e-05
-5.17432e-07
7.33497e-06
-1.60672e-05
-5.24779e-07
7.18937e-06
-1.47879e-05
-5.28881e-07
7.0052e-06
-1.35052e-05
-5.29483e-07
6.80141e-06
-1.22165e-05
-5.26535e-07
6.59349e-06
-1.09047e-05
-5.19845e-07
6.38457e-06
-9.54964e-06
-5.08875e-07
6.16125e-06
-8.18791e-06
-4.93517e-07
5.9215e-06
-6.87769e-06
-4.73466e-07
5.66358e-06
-5.62967e-06
-4.48376e-07
5.38636e-06
-4.44126e-06
-4.19247e-07
5.08657e-06
-3.29771e-06
-3.83673e-07
4.75865e-06
-2.16563e-06
-3.39695e-07
4.38635e-06
-9.69493e-07
-2.86592e-07
4.00212e-06
3.56009e-07
-2.22091e-07
3.57583e-06
1.7605e-06
-1.48597e-07
2.90028e-06
3.90641e-06
-5.01987e-08
2.07598e-06
6.9924e-06
7.71921e-08
1.22808e-06
1.0744e-05
2.13846e-07
5.46602e-07
1.35049e-05
3.08845e-07
5.09609e-08
1.38893e-05
2.90855e-07
9.03072e-06
9.00692e-08
3.37702e-07
-6.74815e-06
-1.3212e-07
9.77254e-07
-1.54939e-05
-2.55378e-07
1.70067e-06
-2.00721e-05
-3.16421e-07
2.42678e-06
-2.21219e-05
-3.52916e-07
3.13562e-06
-2.2972e-05
-3.75989e-07
3.81838e-06
-2.32594e-05
-3.95138e-07
4.46187e-06
-2.32012e-05
-4.11589e-07
5.03451e-06
-2.28675e-05
-4.28258e-07
5.5196e-06
-2.22729e-05
-4.47287e-07
5.92377e-06
-2.14826e-05
-4.66217e-07
6.20293e-06
-2.0487e-05
-4.86301e-07
6.34868e-06
-1.93238e-05
-5.0666e-07
6.37166e-06
-1.80463e-05
-5.26023e-07
6.2977e-06
-1.67136e-05
-5.42698e-07
6.15864e-06
-1.53729e-05
-5.55216e-07
5.98344e-06
-1.40498e-05
-5.6279e-07
5.79354e-06
-1.27499e-05
-5.65357e-07
5.60325e-06
-1.14628e-05
-5.63307e-07
5.42359e-06
-1.01679e-05
-5.5699e-07
5.26348e-06
-8.84302e-06
-5.46418e-07
5.10477e-06
-7.49723e-06
-5.31877e-07
4.94165e-06
-6.20062e-06
-5.13876e-07
4.76864e-06
-4.96415e-06
-4.92424e-07
4.58016e-06
-3.78438e-06
-4.68308e-07
4.36944e-06
-2.64791e-06
-4.38991e-07
4.13175e-06
-1.52461e-06
-4.03233e-07
3.85365e-06
-3.32564e-07
-3.58711e-07
3.57844e-06
9.34834e-07
-3.03498e-07
3.11668e-06
2.46103e-06
-2.38607e-07
2.51039e-06
4.6612e-06
-1.48304e-07
1.79658e-06
7.73442e-06
-2.8021e-08
1.07459e-06
1.13616e-05
1.04515e-07
4.9313e-07
1.38867e-05
1.99793e-07
6.29298e-08
1.41205e-05
1.99215e-07
9.04616e-06
4.75031e-08
3.12343e-07
-6.92513e-06
-1.35043e-07
8.89595e-07
-1.58229e-05
-2.48016e-07
1.53342e-06
-2.04124e-05
-3.03373e-07
2.1755e-06
-2.24257e-05
-3.38174e-07
2.80109e-06
-2.32374e-05
-3.60151e-07
3.40248e-06
-2.34823e-05
-3.78497e-07
3.96862e-06
-2.33723e-05
-3.95013e-07
4.47237e-06
-2.29578e-05
-4.1342e-07
4.90231e-06
-2.22671e-05
-4.35614e-07
5.22153e-06
-2.13429e-05
-4.58888e-07
5.41627e-06
-2.01973e-05
-4.84432e-07
5.48548e-06
-1.88822e-05
-5.10732e-07
5.44832e-06
-1.74736e-05
-5.35404e-07
5.33601e-06
-1.60451e-05
-5.56095e-07
5.18115e-06
-1.46467e-05
-5.71224e-07
5.01016e-06
-1.32985e-05
-5.80235e-07
4.8407e-06
-1.19969e-05
-5.83433e-07
4.68333e-06
-1.07237e-05
-5.81627e-07
4.54494e-06
-9.45385e-06
-5.75571e-07
4.43017e-06
-8.16244e-06
-5.65719e-07
4.32807e-06
-6.84271e-06
-5.52316e-07
4.22958e-06
-5.56559e-06
-5.36443e-07
4.12562e-06
-4.3418e-06
-5.18284e-07
4.00673e-06
-3.16696e-06
-4.98437e-07
3.86061e-06
-2.02711e-06
-4.74575e-07
3.67764e-06
-8.95681e-07
-4.45848e-07
3.46356e-06
2.91884e-07
-4.10246e-07
3.2471e-06
1.51917e-06
-3.67738e-07
2.83479e-06
3.18466e-06
-3.11132e-07
2.27463e-06
5.45358e-06
-2.32009e-07
1.61852e-06
8.51417e-06
-1.23427e-07
9.71301e-07
1.2007e-05
1.97247e-09
4.54628e-07
1.4306e-05
9.7633e-08
6.38014e-08
1.43956e-05
1.15962e-07
9.09409e-06
1.58731e-08
2.84572e-07
-7.08173e-06
-1.27553e-07
8.08464e-07
-1.61346e-05
-2.12024e-07
1.38535e-06
-2.07365e-05
-2.52609e-07
1.95637e-06
-2.27086e-05
-2.87902e-07
2.51108e-06
-2.34773e-05
-3.14668e-07
3.04203e-06
-2.36746e-05
-3.38477e-07
3.53368e-06
-2.35036e-05
-3.60241e-07
3.95683e-06
-2.29968e-05
-3.83991e-07
4.31487e-06
-2.22118e-05
-4.13301e-07
4.56045e-06
-2.11439e-05
-4.44399e-07
4.68006e-06
-1.9839e-05
-4.77724e-07
4.68664e-06
-1.83773e-05
-5.1135e-07
4.60976e-06
-1.68541e-05
-5.42506e-07
4.48337e-06
-1.535e-05
-5.68596e-07
4.33627e-06
-1.39115e-05
-5.87967e-07
4.18831e-06
-1.25503e-05
-6.00096e-07
4.0508e-06
-1.12539e-05
-6.05363e-07
3.92917e-06
-9.9973e-06
-6.04685e-07
3.82626e-06
-8.75183e-06
-5.98989e-07
3.74421e-06
-7.49125e-06
-5.89017e-07
3.68302e-06
-6.20611e-06
-5.75292e-07
3.62882e-06
-4.95185e-06
-5.59433e-07
3.57254e-06
-3.74335e-06
-5.42059e-07
3.51026e-06
-2.58066e-06
-5.23901e-07
3.43802e-06
-1.45164e-06
-5.03124e-07
3.33958e-06
-3.18139e-07
-4.78996e-07
3.23265e-06
8.48467e-07
-4.49542e-07
2.98448e-06
2.18182e-06
-4.1435e-07
2.59882e-06
3.93714e-06
-3.66659e-07
2.06765e-06
6.28371e-06
-2.98782e-07
1.43264e-06
9.35258e-06
-2.03238e-07
8.26579e-07
1.27023e-05
-8.90253e-08
3.75135e-07
1.4755e-05
2.52193e-09
4.15752e-08
1.46935e-05
3.58638e-08
9.15723e-06
-2.15527e-08
2.78229e-07
-7.23707e-06
-1.22408e-07
7.82347e-07
-1.64604e-05
-1.78054e-07
1.32329e-06
-2.10703e-05
-2.06998e-07
1.84547e-06
-2.29851e-05
-2.45553e-07
2.34474e-06
-2.36995e-05
-2.76971e-07
2.81678e-06
-2.38415e-05
-3.05081e-07
3.24733e-06
-2.36025e-05
-3.31471e-07
3.60552e-06
-2.29922e-05
-3.62618e-07
3.86336e-06
-2.20757e-05
-3.93797e-07
3.99938e-06
-2.08491e-05
-4.30695e-07
4.01421e-06
-1.93831e-05
-4.70544e-07
3.93521e-06
-1.77884e-05
-5.0976e-07
3.80132e-06
-1.6175e-05
-5.45066e-07
3.64687e-06
-1.46211e-05
-5.74227e-07
3.49486e-06
-1.31631e-05
-5.96148e-07
3.35787e-06
-1.18025e-05
-6.10639e-07
3.24149e-06
-1.05193e-05
-6.18114e-07
3.14784e-06
-9.28416e-06
-6.19344e-07
3.07863e-06
-8.0673e-06
-6.15179e-07
3.03621e-06
-6.8424e-06
-6.06293e-07
3.02069e-06
-5.59721e-06
-5.93243e-07
3.01036e-06
-4.36343e-06
-5.77958e-07
2.99617e-06
-3.16773e-06
-5.61305e-07
2.97447e-06
-2.01458e-06
-5.44255e-07
2.94094e-06
-8.92398e-07
-5.25595e-07
2.87997e-06
2.4677e-07
-5.0382e-07
2.79911e-06
1.40842e-06
-4.78952e-07
2.57032e-06
2.85882e-06
-4.48049e-07
2.20472e-06
4.70962e-06
-4.06706e-07
1.69865e-06
7.13859e-06
-3.48622e-07
1.1038e-06
1.02143e-05
-2.66651e-07
5.74048e-07
1.33991e-05
-1.6698e-07
2.2592e-07
1.51883e-05
-8.50093e-08
-1.03041e-08
1.49726e-05
-4.26567e-08
9.20427e-06
-5.73356e-08
2.97526e-07
-7.42954e-06
-1.0459e-07
8.48095e-07
-1.69056e-05
-1.05069e-07
1.41905e-06
-2.15269e-05
-1.14115e-07
1.951e-06
-2.33544e-05
-1.62502e-07
2.44293e-06
-2.39847e-05
-2.06546e-07
2.89112e-06
-2.40437e-05
-2.45835e-07
3.27908e-06
-2.37083e-05
-2.82072e-07
3.56639e-06
-2.29548e-05
-3.24614e-07
3.69765e-06
-2.18368e-05
-3.69999e-07
3.6734e-06
-2.04051e-05
-4.19568e-07
3.53306e-06
-1.8773e-05
-4.69585e-07
3.33362e-06
-1.70733e-05
-5.15423e-07
3.12336e-06
-1.54104e-05
-5.54126e-07
2.93081e-06
-1.38436e-05
-5.84786e-07
2.76758e-06
-1.23921e-05
-6.07634e-07
2.63593e-06
-1.10475e-05
-6.2324e-07
2.53459e-06
-9.78556e-06
-6.32204e-07
2.46215e-06
-8.57642e-06
-6.35159e-07
2.41832e-06
-7.39052e-06
-6.328e-07
2.40405e-06
-6.20233e-06
-6.25655e-07
2.41742e-06
-4.99627e-06
-6.14168e-07
2.43509e-06
-3.7814e-06
-5.99566e-07
2.44625e-06
-2.59541e-06
-5.83347e-07
2.4456e-06
-1.44718e-06
-5.6661e-07
2.43006e-06
-3.28239e-07
-5.48488e-07
2.40393e-06
8.00472e-07
-5.27435e-07
2.28027e-06
2.03576e-06
-5.03527e-07
2.06236e-06
3.55063e-06
-4.73714e-07
1.7333e-06
5.47349e-06
-4.34583e-07
1.28739e-06
7.96596e-06
-3.81222e-07
7.81906e-07
1.10282e-05
-3.08248e-07
3.63943e-07
1.404e-05
-2.22721e-07
1.16436e-07
1.55882e-05
-1.52188e-07
-3.7535e-08
1.52332e-05
-1.06239e-07
9.25214e-06
-8.5395e-08
4.35877e-07
-7.78473e-06
-8.03704e-08
1.14833e-06
-1.76113e-05
-6.5507e-09
1.81939e-06
-2.22037e-05
5.87445e-09
2.41254e-06
-2.38891e-05
-5.8313e-08
2.9348e-06
-2.43877e-05
-1.19244e-07
3.38027e-06
-2.43173e-05
-1.7176e-07
3.65815e-06
-2.3768e-05
-2.18037e-07
3.78372e-06
-2.27977e-05
-2.82571e-07
3.70804e-06
-2.14106e-05
-3.50383e-07
3.45468e-06
-1.97317e-05
-4.19945e-07
3.10805e-06
-1.79423e-05
-4.83991e-07
2.75582e-06
-1.61844e-05
-5.36533e-07
2.45127e-06
-1.45296e-05
-5.7611e-07
2.21147e-06
-1.29991e-05
-6.04531e-07
2.03229e-06
-1.15884e-05
-6.24409e-07
1.90255e-06
-1.02799e-05
-6.37752e-07
1.81213e-06
-9.04928e-06
-6.45719e-07
1.75426e-06
-7.86947e-06
-6.48954e-07
1.725e-06
-6.71322e-06
-6.47914e-07
1.72232e-06
-5.55671e-06
-6.42816e-07
1.74374e-06
-4.38378e-06
-6.33783e-07
1.77789e-06
-3.19434e-06
-6.21088e-07
1.81291e-06
-2.02383e-06
-6.0648e-07
1.83986e-06
-8.82986e-07
-5.91042e-07
1.85226e-06
2.33676e-07
-5.74205e-07
1.84341e-06
1.36451e-06
-5.55068e-07
1.73726e-06
2.67378e-06
-5.31733e-07
1.54261e-06
4.24743e-06
-5.01997e-07
1.25404e-06
6.22526e-06
-4.63022e-07
8.80429e-07
8.75052e-06
-4.1075e-07
4.83549e-07
1.17669e-05
-3.41672e-07
1.85585e-07
1.46026e-05
-2.64465e-07
2.61291e-08
1.59496e-05
-2.01766e-07
-6.21128e-08
1.54752e-05
-1.5347e-07
9.29533e-06
-1.05299e-07
6.26391e-07
-8.38654e-06
-2.43966e-08
1.48626e-06
-1.86308e-05
1.59674e-07
2.16633e-06
-2.30816e-05
1.97853e-07
2.70977e-06
-2.45402e-05
1.07659e-07
3.13306e-06
-2.48277e-05
1.67567e-08
3.39139e-06
-2.45167e-05
-5.88748e-08
3.47813e-06
-2.37003e-05
-1.54407e-07
3.31783e-06
-2.23995e-05
-2.37805e-07
2.91131e-06
-2.06707e-05
-3.33236e-07
2.36462e-06
-1.87548e-05
-4.30112e-07
1.81649e-06
-1.68802e-05
-5.13817e-07
1.36066e-06
-1.51523e-05
-5.7613e-07
1.02837e-06
-1.35797e-05
-6.17522e-07
8.10584e-07
-1.21383e-05
-6.42982e-07
6.8195e-07
-1.08018e-05
-6.57813e-07
6.16484e-07
-9.54842e-06
-6.65879e-07
5.94518e-07
-8.35779e-06
-6.69429e-07
6.03353e-07
-7.20863e-06
-6.69592e-07
6.35913e-07
-6.0788e-06
-6.66892e-07
6.88926e-07
-4.94827e-06
-6.61365e-07
7.61616e-07
-3.80351e-06
-6.52873e-07
8.53577e-07
-2.64483e-06
-6.41379e-07
9.56889e-07
-1.49872e-06
-6.28331e-07
1.06126e-06
-3.72715e-07
-6.1455e-07
1.14467e-06
7.49851e-07
-5.99478e-07
1.15962e-06
1.93142e-06
-5.81736e-07
1.10632e-06
3.2866e-06
-5.59383e-07
9.74169e-07
4.91001e-06
-5.30263e-07
7.57392e-07
6.93361e-06
-4.9139e-07
4.74209e-07
9.47263e-06
-4.38734e-07
1.87996e-07
1.24253e-05
-3.7195e-07
9.70648e-10
1.50886e-05
-2.98879e-07
-7.68698e-08
1.62675e-05
-2.39889e-07
-1.02091e-07
1.5689e-05
-1.88364e-07
9.31505e-06
-1.21805e-07
7.08938e-07
-9.16661e-06
7.0982e-08
1.43445e-06
-1.97385e-05
3.82173e-07
1.76394e-06
-2.38566e-05
4.45478e-07
1.86564e-06
-2.49723e-05
3.30364e-07
1.88573e-06
-2.50456e-05
1.97802e-07
1.81134e-06
-2.45021e-05
5.97847e-08
1.53969e-06
-2.33781e-05
-5.05161e-08
9.77809e-07
-2.16663e-05
-1.713e-07
2.33306e-07
-1.9623e-05
-3.03244e-07
-4.89177e-07
-1.76005e-05
-4.3177e-07
-1.05108e-06
-1.57807e-05
-5.37614e-07
-1.40874e-06
-1.4182e-05
-6.12659e-07
-1.58812e-06
-1.27411e-05
-6.5922e-07
-1.63021e-06
-1.14111e-05
-6.85063e-07
-1.57699e-06
-1.01578e-05
-6.97259e-07
-1.4636e-06
-8.96071e-06
-7.01088e-07
-1.31518e-06
-7.80617e-06
-7.00022e-07
-1.14737e-06
-6.68038e-06
-6.9603e-07
-9.67788e-07
-5.56827e-06
-6.90098e-07
-7.78178e-07
-4.45538e-06
-6.82475e-07
-5.76996e-07
-3.33166e-06
-6.73004e-07
-3.63219e-07
-2.19706e-06
-6.61518e-07
-1.43192e-07