/*--------------------------------*- C++ -*----------------------------------*\
| =========                 |                                                 |
| \\      /  F ield         | OpenFOAM: The Open Source CFD Toolbox           |
|  \\    /   O peration     | Version:  2.0.x                                 |
|   \\  /    A nd           | Web:      www.OpenFOAM.org                      |
|    \\/     M anipulation  |                                                 |
\*---------------------------------------------------------------------------*/
FoamFile
{
    version     2.0;
    format      ascii;
    class       volScalarField;
    location    "600";
    object      T;
}
// * * * * * * * * * * * * * * * * * * * * * * * * * * * * * * * * * * * * * //

dimensions      [0 0 0 1 0 0 0];

internalField   nonuniform List<scalar> 
78750
(
288.935
289.821
290.088
290.136
290.15
290.194
290.27
290.353
290.431
290.503
290.566
290.623
290.676
290.726
290.773
290.817
290.858
290.895
290.929
290.96
290.987
291.011
291.032
291.05
291.065
291.076
291.083
291.086
291.081
291.079
291.079
291.086
291.208
292.622
300.135
288.682
289.274
289.476
289.512
289.635
289.86
290.058
290.22
290.361
290.49
290.614
290.734
290.847
290.955
291.055
291.149
291.236
291.316
291.389
291.453
291.511
291.562
291.603
291.636
291.661
291.676
291.676
291.671
291.648
291.606
291.54
291.511
291.697
293.663
300.702
288.347
288.678
288.924
289.203
289.536
289.849
290.12
290.346
290.537
290.707
290.86
290.998
291.123
291.236
291.342
291.439
291.527
291.608
291.682
291.749
291.808
291.86
291.903
291.937
291.961
291.971
291.97
291.96
291.926
291.884
291.86
291.952
292.904
295.476
301.474
288.394
288.863
289.321
289.751
290.068
290.306
290.497
290.662
290.81
290.946
291.073
291.193
291.307
291.414
291.512
291.605
291.693
291.776
291.854
291.927
291.993
292.054
292.107
292.152
292.185
292.204
292.208
292.2
292.174
292.154
292.187
292.562
294.064
296.876
302.267
288.433
288.973
289.44
289.814
290.105
290.333
290.521
290.684
290.83
290.964
291.09
291.209
291.324
291.433
291.539
291.641
291.738
291.832
291.92
292.002
292.078
292.147
292.209
292.263
292.309
292.343
292.365
292.374
292.377
292.401
292.544
293.171
294.988
297.864
302.876
288.464
289.054
289.552
289.935
290.21
290.422
290.598
290.754
290.895
291.026
291.149
291.264
291.373
291.477
291.576
291.67
291.76
291.847
291.93
292.011
292.089
292.165
292.236
292.303
292.363
292.417
292.464
292.509
292.563
292.666
292.945
293.784
295.766
298.671
303.455
288.48
289.083
289.574
289.947
290.22
290.43
290.605
290.76
290.901
291.032
291.154
291.268
291.377
291.48
291.579
291.673
291.762
291.848
291.931
292.012
292.093
292.172
292.25
292.327
292.404
292.478
292.551
292.626
292.725
292.902
293.299
294.289
296.383
299.281
303.853
288.485
289.101
289.606
289.983
290.252
290.457
290.629
290.78
290.919
291.048
291.168
291.282
291.39
291.491
291.588
291.68
291.768
291.852
291.934
292.015
292.095
292.174
292.252
292.331
292.412
292.498
292.589
292.695
292.843
293.096
293.608
294.738
296.913
299.798
304.177
288.498
289.131
289.641
290.017
290.286
290.493
290.665
290.817
290.955
291.082
291.202
291.314
291.42
291.521
291.616
291.706
291.794
291.878
291.958
292.036
292.112
292.186
292.261
292.337
292.419
292.508
292.608
292.734
292.92
293.24
293.854
295.115
297.352
300.21
304.428
288.507
289.159
289.686
290.071
290.34
290.545
290.717
290.87
291.01
291.14
291.262
291.377
291.487
291.591
291.689
291.781
291.867
291.947
292.022
292.093
292.161
292.228
292.295
292.365
292.441
292.526
292.629
292.771
292.989
293.347
294.02
295.374
297.654
300.501
304.61
288.522
289.199
289.74
290.132
290.408
290.618
290.794
290.95
291.093
291.225
291.35
291.469
291.582
291.69
291.792
291.888
291.976
292.058
292.134
292.204
292.269
292.329
292.388
292.448
292.513
292.59
292.69
292.834
293.063
293.453
294.203
295.657
297.962
300.782
304.784
288.535
289.237
289.793
290.189
290.464
290.674
290.852
291.011
291.157
291.294
291.424
291.548
291.667
291.779
291.885
291.985
292.078
292.165
292.246
292.319
292.386
292.447
292.504
292.559
292.617
292.685
292.776
292.915
293.142
293.546
294.351
295.886
298.207
301.006
304.928
288.552
289.281
289.854
290.257
290.535
290.747
290.927
291.087
291.235
291.374
291.506
291.632
291.753
291.867
291.975
292.078
292.174
292.264
292.349
292.427
292.498
292.563
292.623
292.681
292.742
292.811
292.902
293.041
293.272
293.691
294.528
296.098
298.401
301.177
305.049
288.568
289.322
289.91
290.317
290.597
290.811
290.994
291.159
291.312
291.457
291.595
291.726
291.849
291.966
292.076
292.179
292.276
292.366
292.45
292.529
292.603
292.671
292.736
292.8
292.867
292.946
293.049
293.202
293.446
293.886
294.754
296.336
298.587
301.32
305.148
288.583
289.362
289.964
290.379
290.664
290.884
291.073
291.245
291.405
291.557
291.701
291.837
291.965
292.084
292.194
292.295
292.387
292.474
292.555
292.633
292.708
292.779
292.848
292.918
292.994
293.083
293.199
293.364
293.624
294.104
295.03
296.635
298.816
301.477
305.251
288.597
289.398
290.009
290.426
290.713
290.938
291.134
291.314
291.485
291.647
291.802
291.948
292.082
292.204
292.313
292.41
292.499
292.581
292.659
292.735
292.809
292.882
292.956
293.032
293.115
293.213
293.34
293.518
293.797
294.306
295.267
296.891
299.011
301.603
305.329
288.611
289.432
290.055
290.475
290.764
290.992
291.193
291.38
291.559
291.731
291.895
292.05
292.19
292.314
292.421
292.516
292.6
292.678
292.753
292.827
292.902
292.978
293.057
293.142
293.236
293.347
293.485
293.674
293.975
294.51
295.485
297.103
299.156
301.684
305.385
288.626
289.469
290.098
290.516
290.804
291.034
291.239
291.432
291.619
291.801
291.976
292.139
292.285
292.412
292.52
292.611
292.692
292.766
292.838
292.91
292.986
293.065
293.148
293.24
293.344
293.467
293.621
293.833
294.164
294.734
295.732
297.339
299.314
301.764
305.435
288.642
289.509
290.148
290.565
290.851
291.081
291.288
291.487
291.681
291.872
292.056
292.226
292.377
292.506
292.615
292.706
292.785
292.856
292.925
292.994
293.068
293.148
293.236
293.333
293.445
293.579
293.749
293.992
294.372
294.997
296.045
297.653
299.53
301.872
305.495
288.663
289.564
290.215
290.628
290.908
291.136
291.346
291.55
291.751
291.948
292.134
292.305
292.455
292.586
292.697
292.791
292.872
292.944
293.011
293.08
293.152
293.232
293.32
293.42
293.538
293.68
293.867
294.138
294.562
295.25
296.358
297.972
299.753
301.981
305.55
288.691
289.644
290.323
290.74
291.02
291.251
291.468
291.682
291.891
292.085
292.259
292.411
292.545
292.665
292.771
292.865
292.948
293.023
293.094
293.164
293.237
293.318
293.408
293.511
293.631
293.779
293.98
294.275
294.732
295.467
296.621
298.235
299.935
302.067
305.593
288.734
289.765
290.488
290.918
291.208
291.456
291.697
291.933
292.149
292.329
292.47
292.584
292.682
292.774
292.861
292.946
293.025
293.1
293.172
293.245
293.322
293.406
293.499
293.604
293.728
293.884
294.096
294.408
294.89
295.655
296.832
298.427
300.058
302.119
305.621
288.793
289.92
290.693
291.148
291.464
291.747
292.026
292.289
292.506
292.655
292.749
292.813
292.867
292.922
292.982
293.047
293.116
293.185
293.255
293.329
293.408
293.494
293.59
293.699
293.829
293.995
294.22
294.546
295.046
295.828
297.011
298.572
300.141
302.145
305.637
288.856
290.067
290.871
291.347
291.696
292.019
292.337
292.624
292.836
292.956
293.008
293.037
293.06
293.089
293.126
293.173
293.228
293.288
293.353
293.424
293.503
293.591
293.69
293.804
293.943
294.121
294.363
294.71
295.233
296.033
297.213
298.727
300.232
302.181
305.657
288.877
290.097
290.896
291.374
291.733
292.071
292.399
292.686
292.908
293.062
293.161
293.205
293.224
293.244
293.27
293.305
293.35
293.403
293.462
293.53
293.606
293.694
293.794
293.913
294.061
294.253
294.514
294.887
295.438
296.259
297.434
298.889
300.328
302.227
305.679
288.874
290.075
290.86
291.337
291.703
292.047
292.371
292.654
292.884
293.059
293.184
293.275
293.341
293.38
293.407
293.439
293.478
293.526
293.582
293.647
293.721
293.807
293.908
294.032
294.189
294.393
294.671
295.066
295.643
296.484
297.65
299.046
300.428
302.282
305.698
288.823
289.938
290.687
291.167
291.536
291.87
292.182
292.469
292.725
292.946
293.126
293.264
293.366
293.446
293.512
293.56
293.603
293.649
293.702
293.765
293.839
293.925
294.028
294.156
294.319
294.532
294.823
295.234
295.828
296.682
297.834
299.176
300.51
302.328
305.709
288.737
289.706
290.387
290.847
291.2
291.516
291.815
292.104
292.382
292.645
292.885
293.097
293.274
293.416
293.526
293.615
293.691
293.76
293.822
293.885
293.958
294.045
294.15
294.281
294.449
294.67
294.968
295.388
295.989
296.844
297.977
299.272
300.571
302.365
305.717
288.651
289.475
290.065
290.478
290.799
291.084
291.355
291.624
291.893
292.164
292.433
292.696
292.943
293.168
293.367
293.535
293.673
293.787
293.886
293.977
294.066
294.16
294.269
294.405
294.58
294.808
295.117
295.544
296.151
297.001
298.108
299.353
300.614
302.382
305.714
288.597
289.334
289.86
290.224
290.497
290.731
290.951
291.167
291.386
291.613
291.855
292.113
292.381
292.647
292.911
293.167
293.405
293.617
293.8
293.957
294.095
294.224
294.356
294.505
294.69
294.929
295.249
295.687
296.298
297.14
298.223
299.426
300.654
302.398
305.706
288.568
289.276
289.807
290.183
290.449
290.662
290.852
291.029
291.198
291.362
291.52
291.678
291.852
292.055
292.284
292.547
292.841
293.126
293.405
293.669
293.912
294.135
294.337
294.529
294.743
295.007
295.35
295.81
296.44
297.289
298.357
299.524
300.717
302.422
305.7
288.55
289.259
289.801
290.181
290.449
290.662
290.851
291.028
291.197
291.359
291.514
291.663
291.804
291.94
292.072
292.204
292.351
292.56
292.821
293.124
293.439
293.769
294.1
294.399
294.683
294.985
295.346
295.822
296.471
297.34
298.413
299.567
300.74
302.422
305.683
288.549
289.27
289.838
290.241
290.519
290.735
290.927
291.109
291.285
291.454
291.612
291.754
291.879
291.992
292.1
292.208
292.32
292.44
292.576
292.739
292.976
293.301
293.687
294.079
294.473
294.875
295.303
295.812
296.471
297.342
298.419
299.572
300.743
302.423
305.677
288.585
289.392
290.043
290.49
290.79
291.024
291.237
291.446
291.65
291.834
291.984
292.098
292.182
292.247
292.303
292.358
292.42
292.495
292.588
292.708
292.864
293.079
293.383
293.757
294.192
294.669
295.172
295.737
296.439
297.337
298.423
299.58
300.753
302.434
305.684
288.653
289.597
290.343
290.838
291.176
291.455
291.724
291.991
292.233
292.424
292.551
292.621
292.652
292.661
292.662
292.665
292.675
292.7
292.743
292.811
292.916
293.075
293.3
293.6
293.997
294.486
295.032
295.645
296.381
297.31
298.419
299.583
300.762
302.455
305.704
288.738
289.817
290.623
291.137
291.506
291.837
292.165
292.482
292.752
292.939
293.03
293.058
293.053
293.033
293.007
292.985
292.971
292.972
292.992
293.034
293.104
293.213
293.379
293.622
293.963
294.415
294.968
295.616
296.386
297.321
298.432
299.593
300.777
302.491
305.74
288.813
289.943
290.731
291.231
291.605
291.95
292.29
292.609
292.876
293.075
293.211
293.268
293.278
293.27
293.254
293.237
293.226
293.227
293.245
293.283
293.344
293.434
293.566
293.759
294.043
294.457
294.997
295.646
296.432
297.395
298.508
299.643
300.82
302.555
305.786
288.819
289.945
290.73
291.224
291.597
291.946
292.288
292.603
292.867
293.071
293.219
293.321
293.384
293.409
293.42
293.425
293.432
293.445
293.47
293.512
293.574
293.66
293.778
293.944
294.19
294.559
295.076
295.736
296.544
297.518
298.621
299.724
300.889
302.64
305.833
288.784
289.852
290.597
291.083
291.458
291.799
292.123
292.428
292.707
292.954
293.157
293.31
293.421
293.502
293.549
293.576
293.6
293.626
293.66
293.707
293.773
293.86
293.974
294.129
294.351
294.681
295.162
295.81
296.627
297.611
298.706
299.782
300.937
302.702
305.859
288.701
289.634
290.314
290.779
291.136
291.454
291.759
292.058
292.354
292.644
292.919
293.165
293.365
293.51
293.615
293.69
293.737
293.776
293.819
293.871
293.939
294.028
294.144
294.301
294.521
294.84
295.302
295.936
296.755
297.743
298.821
299.861
301.001
302.777
305.887
288.641
289.475
290.089
290.513
290.839
291.134
291.42
291.703
291.987
292.273
292.561
292.849
293.128
293.381
293.582
293.725
293.829
293.898
293.953
294.01
294.079
294.165
294.279
294.432
294.651
294.974
295.443
296.087
296.91
297.889
298.938
299.944
301.066
302.839
305.908
288.619
289.424
290.013
290.411
290.709
290.974
291.228
291.479
291.729
291.983
292.243
292.512
292.794
293.088
293.381
293.639
293.832
293.966
294.058
294.131
294.205
294.291
294.401
294.546
294.751
295.058
295.516
296.159
296.99
297.971
299.008
299.996
301.107
302.873
305.914
288.601
289.384
289.972
290.371
290.661
290.91
291.144
291.372
291.601
291.833
292.071
292.317
292.574
292.846
293.136
293.441
293.731
293.959
294.114
294.221
294.309
294.401
294.508
294.645
294.839
295.128
295.561
296.184
297.01
297.997
299.034
300.018
301.127
302.89
305.917
288.588
289.359
289.942
290.341
290.637
290.892
291.131
291.363
291.594
291.826
292.065
292.311
292.568
292.838
293.122
293.413
293.697
293.954
294.157
294.301
294.411
294.511
294.619
294.756
294.948
295.23
295.651
296.262
297.082
298.063
299.085
300.054
301.157
302.925
305.935
288.589
289.362
289.943
290.34
290.634
290.887
291.126
291.358
291.591
291.826
292.069
292.325
292.605
292.912
293.241
293.567
293.847
294.087
294.275
294.417
294.528
294.628
294.736
294.874
295.064
295.343
295.76
296.368
297.187
298.161
299.168
300.126
301.219
302.97
305.957
288.605
289.391
289.961
290.344
290.624
290.868
291.1
291.332
291.566
291.808
292.061
292.333
292.631
292.971
293.351
293.742
294.093
294.334
294.489
294.598
294.692
294.785
294.891
295.026
295.211
295.479
295.879
296.464
297.262
298.221
299.215
300.16
301.258
303.034
305.995
288.622
289.421
289.984
290.351
290.616
290.843
291.058
291.273
291.494
291.726
291.974
292.245
292.551
292.903
293.302
293.72
294.107
294.418
294.636
294.779
294.881
294.977
295.087
295.227
295.415
295.683
296.074
296.644
297.42
298.353
299.317
300.241
301.327
303.095
306.03
288.626
289.427
289.99
290.353
290.606
290.818
291.012
291.199
291.387
291.582
291.79
292.018
292.276
292.568
292.907
293.302
293.74
294.174
294.547
294.82
295.005
295.144
295.275
295.428
295.634
295.922
296.331
296.903
297.656
298.549
299.473
300.366
301.441
303.213
306.073
288.606
289.382
289.949
290.331
290.596
290.806
290.993
291.169
291.339
291.504
291.667
291.828
291.992
292.174
292.387
292.65
292.993
293.43
293.91
294.393
294.818
295.143
295.376
295.582
295.811
296.109
296.524
297.093
297.831
298.695
299.588
300.456
301.503
303.225
306.061
288.591
289.356
289.94
290.33
290.595
290.806
290.993
291.168
291.337
291.501
291.662
291.821
291.976
292.131
292.29
292.455
292.633
292.851
293.178
293.633
294.173
294.73
295.204
295.551
295.853
296.196
296.635
297.212
297.942
298.784
299.65
300.497
301.519
303.221
306.045
288.585
289.353
289.941
290.34
290.616
290.831
291.016
291.188
291.352
291.511
291.667
291.823
291.976
292.131
292.287
292.448
292.617
292.798
292.996
293.236
293.607
294.125
294.734
295.302
295.768
296.178
296.632
297.211
297.94
298.778
299.638
300.483
301.498
303.172
306.004
288.585
289.366
289.986
290.419
290.715
290.942
291.137
291.312
291.474
291.628
291.776
291.92
292.062
292.204
292.348
292.495
292.649
292.814
292.995
293.2
293.447
293.794
294.298
294.898
295.5
296.027
296.537
297.125
297.851
298.694
299.573
300.433
301.442
303.091
305.966
288.593
289.403
290.057
290.514
290.83
291.078
291.294
291.491
291.674
291.844
292.002
292.15
292.291
292.429
292.564
292.698
292.831
292.963
293.1
293.254
293.446
293.705
294.071
294.593
295.24
295.89
296.488
297.119
297.85
298.692
299.567
300.428
301.44
303.091
305.968
288.611
289.461
290.14
290.61
290.942
291.21
291.449
291.67
291.877
292.07
292.25
292.42
292.583
292.741
292.896
293.043
293.179
293.298
293.4
293.496
293.606
293.761
294.011
294.414
295.009
295.739
296.452
297.141
297.889
298.722
299.584
300.44
301.451
303.097
305.972
288.645
289.547
290.246
290.72
291.059
291.34
291.598
291.841
292.07
292.284
292.485
292.679
292.87
293.064
293.26
293.447
293.614
293.751
293.852
293.925
293.989
294.072
294.218
294.487
294.955
295.636
296.423
297.2
297.994
298.827
299.669
300.506
301.513
303.167
306.016
288.671
289.603
290.304
290.77
291.111
291.409
291.692
291.962
292.22
292.465
292.698
292.924
293.154
293.395
293.64
293.863
294.04
294.181
294.284
294.358
294.419
294.49
294.604
294.807
295.181
295.803
296.58
297.401
298.21
299.03
299.846
300.664
301.665
303.312
306.104
288.69
289.62
290.312
290.774
291.114
291.414
291.702
291.985
292.261
292.526
292.78
293.028
293.279
293.544
293.823
294.102
294.347
294.512
294.614
294.684
294.742
294.809
294.91
295.084
295.408
295.961
296.685
297.491
298.31
299.129
299.934
300.748
301.765
303.436
306.151
288.692
289.618
290.302
290.756
291.095
291.398
291.69
291.977
292.255
292.522
292.778
293.027
293.278
293.536
293.814
294.103
294.369
294.59
294.759
294.881
294.972
295.052
295.139
295.265
295.492
295.909
296.551
297.344
298.184
299.027
299.849
300.669
301.691
303.379
306.122
288.656
289.535
290.194
290.645
290.983
291.285
291.576
291.864
292.148
292.424
292.689
292.944
293.197
293.465
293.75
294.047
294.335
294.59
294.798
294.961
295.088
295.193
295.293
295.409
295.582
295.888
296.404
297.148
298.008
298.897
299.765
300.609
301.639
303.337
306.098
288.652
289.522
290.158
290.581
290.902
291.193
291.479
291.77
292.062
292.353
292.637
292.913
293.185
293.462
293.757
294.073
294.39
294.664
294.875
295.041
295.175
295.291
295.402
295.521
295.674
295.916
296.349
297.044
297.939
298.873
299.751
300.589
301.607
303.309
306.087
288.651
289.521
290.156
290.569
290.873
291.143
291.41
291.685
291.972
292.269
292.563
292.852
293.136
293.423
293.728
294.063
294.414
294.745
295.017
295.207
295.343
295.452
295.551
295.654
295.777
295.954
296.252
296.755
297.523
298.465
299.417
300.296
301.315
302.999
305.93
288.647
289.513
290.146
290.559
290.855
291.111
291.357
291.603
291.854
292.116
292.395
292.683
292.972
293.266
293.575
293.916
294.299
294.7
295.053
295.314
295.491
295.617
295.714
295.802
295.898
296.027
296.24
296.608
297.222
298.112
299.159
300.157
301.219
302.881
305.88
288.648
289.521
290.154
290.565
290.86
291.114
291.358
291.604
291.853
292.108
292.37
292.637
292.914
293.201
293.506
293.851
294.254
294.708
295.147
295.482
295.715
295.87
295.973
296.045
296.107
296.185
296.321
296.625
297.217
298.104
299.163
300.164
301.227
302.9
305.898
288.667
289.562
290.201
290.608
290.898
291.147
291.385
291.624
291.868
292.118
292.373
292.635
292.902
293.177
293.469
293.809
294.219
294.714
295.249
295.725
296.074
296.303
296.445
296.535
296.602
296.675
296.803
297.06
297.577
298.422
299.406
300.331
301.397
303.147
306.045
288.677
289.592
290.251
290.668
290.959
291.207
291.442
291.676
291.912
292.149
292.391
292.639
292.89
293.146
293.408
293.684
294.041
294.52
295.123
295.754
296.293
296.692
296.966
297.165
297.334
297.512
297.751
298.117
298.665
299.386
300.169
300.956
301.965
303.665
306.266
288.709
289.677
290.372
290.804
291.104
291.36
291.6
291.833
292.056
292.27
292.483
292.701
292.929
293.166
293.411
293.662
293.934
294.295
294.815
295.486
296.197
296.761
297.198
297.558
297.877
298.2
298.564
299.009
299.553
300.165
300.803
301.493
302.439
304.037
306.402
288.731
289.746
290.487
290.957
291.287
291.569
291.835
292.084
292.306
292.5
292.678
292.854
293.04
293.24
293.452
293.675
293.913
294.182
294.532
295.06
295.77
296.534
297.158
297.607
298.025
298.446
298.898
299.391
299.926
300.488
301.071
301.719
302.618
304.136
306.422
288.752
289.808
290.585
291.084
291.447
291.769
292.079
292.368
292.611
292.802
292.96
293.106
293.258
293.421
293.597
293.781
293.971
294.173
294.41
294.727
295.211
295.892
296.667
297.401
297.985
298.449
298.925
299.436
299.975
300.529
301.103
301.743
302.628
304.135
306.413
288.787
289.898
290.695
291.205
291.59
291.95
292.308
292.639
292.905
293.104
293.254
293.382
293.509
293.645
293.793
293.95
294.111
294.273
294.441
294.633
294.892
295.29
295.881
296.609
297.361
298.086
298.72
299.305
299.872
300.437
301.019
301.671
302.56
304.045
306.352
288.801
289.922
290.714
291.223
291.615
291.991
292.379
292.76
293.095
293.338
293.506
293.638
293.759
293.882
294.013
294.152
294.297
294.442
294.588
294.738
294.913
295.153
295.519
296.061
296.749
297.485
298.199
298.87
299.508
300.129
300.758
301.445
302.358
303.878
306.289
288.802
289.921
290.709
291.214
291.607
291.987
292.375
292.759
293.121
293.439
293.695
293.866
294.002
294.124
294.244
294.369
294.498
294.63
294.762
294.896
295.042
295.226
295.498
295.916
296.52
297.243
297.983
298.688
299.354
300.002
300.653
301.353
302.273
303.808
306.266
288.79
289.882
290.642
291.137
291.528
291.902
292.283
292.674
293.067
293.434
293.752
294.019
294.204
294.347
294.472
294.591
294.709
294.828
294.948
295.07
295.2
295.354
295.566
295.906
296.428
297.134
297.91
298.656
299.341
299.992
300.646
301.347
302.266
303.801
306.264
288.757
289.786
290.502
290.974
291.343
291.694
292.06
292.453
292.877
293.312
293.72
294.064
294.346
294.547
294.698
294.826
294.943
295.056
295.167
295.279
295.394
295.519
295.677
295.916
296.314
296.918
297.678
298.463
299.208
299.902
300.577
301.29
302.22
303.768
306.25
288.741
289.739
290.417
290.844
291.18
291.502
291.838
292.204
292.609
293.056
293.532
293.987
294.362
294.655
294.867
295.024
295.155
295.275
295.392
295.508
295.62
295.73
295.852
296.019
296.289
296.715
297.34
298.093
298.865
299.61
300.332
301.074
302.02
303.595
306.177
288.74
289.736
290.412
290.832
291.144
291.431
291.723
292.034
292.379
292.775
293.234
293.743
294.244
294.655
294.961
295.185
295.349
295.487
295.614
295.735
295.848
295.952
296.059
296.184
296.364
296.68
297.156
297.813
298.585
299.383
300.159
300.929
301.88
303.467
306.121
288.731
289.712
290.386
290.811
291.121
291.39
291.647
291.908
292.19
292.512
292.897
293.364
293.909
294.467
294.932
295.266
295.507
295.69
295.844
295.977
296.094
296.197
296.296
296.403
296.54
296.755
297.145
297.727
298.467
299.298
300.117
300.9
301.845
303.426
306.103
288.709
289.661
290.324
290.746
291.051
291.311
291.553
291.789
292.03
292.292
292.593
292.964
293.434
294.009
294.629
295.172
295.565
295.84
296.045
296.207
296.339
296.451
296.551
296.65
296.768
296.938
297.226
297.725
298.447
299.279
300.114
300.901
301.843
303.419
306.098
288.697
289.639
290.305
290.729
291.031
291.284
291.517
291.74
291.958
292.178
292.415
292.69
293.04
293.505
294.098
294.775
295.398
295.858
296.179
296.405
296.572
296.703
296.808
296.901
297.002
297.14
297.373
297.787
298.447
299.277
300.114
300.906
301.843
303.41
306.093
288.693
289.637
290.305
290.729
291.031
291.284
291.516
291.738
291.954
292.17
292.39
292.62
292.874
293.192
293.64
294.253
294.979
295.671
296.171
296.529
296.782
296.96
297.089
297.187
297.274
297.381
297.562
297.899
298.474
299.279
300.119
300.912
301.847
303.414
306.096
288.695
289.651
290.33
290.757
291.057
291.306
291.533
291.749
291.962
292.174
292.391
292.619
292.866
293.145
293.479
293.929
294.568
295.318
296.011
296.527
296.912
297.182
297.373
297.507
297.61
297.712
297.866
298.156
298.673
299.409
300.226
301.012
301.944
303.497
306.132
288.714
289.708
290.413
290.85
291.152
291.399
291.623
291.834
292.04
292.245
292.454
292.672
292.905
293.166
293.476
293.866
294.383
295.057
295.783
296.44
296.929
297.307
297.592
297.804
297.967
298.111
298.283
298.56
299.025
299.681
300.413
301.153
302.073
303.619
306.19
288.739
289.776
290.505
290.955
291.267
291.523
291.753
291.97
292.18
292.389
292.599
292.814
293.036
293.272
293.54
293.873
294.309
294.877
295.554
296.248
296.855
297.317
297.688
298.001
298.261
298.49
298.728
299.032
299.461
300.023
300.651
301.322
302.2
303.709
306.227
288.767
289.846
290.59
291.046
291.363
291.626
291.865
292.09
292.31
292.53
292.754
292.985
293.22
293.456
293.699
293.974
294.321
294.781
295.359
296.006
296.64
297.207
297.677
298.06
298.417
298.75
299.079
299.441
299.871
300.377
300.933
301.545
302.369
303.817
306.263
288.808
289.945
290.706
291.161
291.478
291.743
291.983
292.212
292.437
292.665
292.902
293.152
293.411
293.665
293.913
294.162
294.441
294.79
295.24
295.78
296.364
296.949
297.503
298.007
298.434
298.841
299.252
299.681
300.141
300.638
301.168
301.755
302.55
303.948
306.313
288.848
290.033
290.809
291.27
291.592
291.861
292.105
292.336
292.561
292.79
293.029
293.282
293.551
293.829
294.094
294.34
294.579
294.848
295.185
295.606
296.096
296.631
297.191
297.756
298.307
298.814
299.273
299.742
300.231
300.743
301.28
301.869
302.661
304.037
306.344
288.865
290.069
290.85
291.316
291.643
291.917
292.163
292.391
292.609
292.825
293.046
293.288
293.557
293.84
294.124
294.393
294.638
294.874
295.135
295.449
295.831
296.287
296.804
297.366
297.952
298.543
299.13
299.687
300.223
300.748
301.294
301.889
302.682
304.049
306.343
288.867
290.077
290.867
291.337
291.667
291.941
292.185
292.409
292.62
292.827
293.04
293.263
293.5
293.77
294.068
294.362
294.631
294.871
295.102
295.346
295.627
295.973
296.403
296.915
297.491
298.105
298.738
299.372
300
300.619
301.226
301.857
302.669
304.038
306.333
288.87
290.096
290.901
291.382
291.718
291.997
292.243
292.465
292.669
292.864
293.058
293.263
293.489
293.737
294.007
294.3
294.591
294.857
295.095
295.316
295.542
295.799
296.121
296.533
297.044
297.636
298.28
298.953
299.636
300.317
300.991
301.682
302.541
303.946
306.295
288.88
290.125
290.942
291.431
291.776
292.063
292.315
292.539
292.742
292.931
293.115
293.303
293.507
293.737
293.998
294.283
294.577
294.861
295.117
295.341
295.548
295.763
296.012
296.323
296.732
297.252
297.869
298.553
299.275
300.009
300.736
301.471
302.371
303.824
306.248
288.882
290.136
290.96
291.455
291.807
292.101
292.358
292.586
292.791
292.982
293.166
293.351
293.547
293.764
294.009
294.282
294.573
294.865
295.139
295.384
295.6
295.8
296.01
296.267
296.593
297.021
297.572
298.232
298.969
299.736
300.493
301.254
302.185
303.69
306.202
288.89
290.162
290.993
291.492
291.849
292.149
292.41
292.641
292.847
293.038
293.221
293.406
293.602
293.817
294.057
294.322
294.603
294.891
295.17
295.429
295.663
295.873
296.074
296.292
296.574
296.946
297.428
298.039
298.757
299.523
300.286
301.052
301.992
303.534
306.144
288.902
290.191
291.027
291.531
291.895
292.201
292.466
292.699
292.906
293.096
293.278
293.462
293.658
293.875
294.12
294.391
294.678
294.967
295.248
295.512
295.753
295.972
296.175
296.382
296.621
296.945
297.402
297.982
298.671
299.426
300.181
300.936
301.866
303.418
306.097
288.908
290.207
291.045
291.553
291.923
292.235
292.506
292.742
292.949
293.138
293.319
293.499
293.692
293.908
294.158
294.442
294.748
295.055
295.351
295.626
295.877
296.103
296.311
296.514
296.737
297.018
297.411
297.978
298.667
299.42
300.171
300.916
301.842
303.399
306.085
288.918
290.233
291.073
291.582
291.958
292.275
292.55
292.787
292.994
293.182
293.359
293.535
293.722
293.932
294.179
294.472
294.8
295.138
295.465
295.766
296.037
296.279
296.498
296.708
296.928
297.187
297.532
298.014
298.671
299.421
300.171
300.919
301.842
303.4
306.087
288.926
290.253
291.095
291.609
291.991
292.314
292.592
292.83
293.036
293.221
293.393
293.564
293.743
293.944
294.184
294.478
294.822
295.191
295.559
295.901
296.206
296.476
296.72
296.951
297.19
297.462
297.806
298.265
298.851
299.532
300.236
300.956
301.869
303.431
306.11
288.933
290.268
291.113
291.632
292.021
292.351
292.633
292.873
293.078
293.259
293.427
293.591
293.761
293.95
294.174
294.456
294.802
295.193
295.601
295.991
296.34
296.649
296.928
297.194
297.466
297.77
298.138
298.602
299.168
299.8
300.451
301.129
302.013
303.547
306.158
288.937
290.277
291.126
291.651
292.046
292.383
292.671
292.913
293.118
293.296
293.459
293.615
293.774
293.947
294.152
294.409
294.738
295.139
295.582
296.013
296.407
296.763
297.087
297.397
297.71
298.051
298.446
298.916
299.462
300.054
300.662
301.309
302.169
303.668
306.202
288.938
290.28
291.133
291.664
292.067
292.412
292.705
292.95
293.155
293.331
293.489
293.638
293.787
293.945
294.124
294.347
294.639
295.021
295.487
295.972
296.41
296.802
297.17
297.525
297.884
298.265
298.689
299.169
299.703
300.269
300.852
301.48
302.324
303.795
306.251
288.936
290.275
291.136
291.675
292.087
292.441
292.741
292.99
293.195
293.368
293.521
293.663
293.802
293.945
294.102
294.285
294.522
294.845
295.284
295.803
296.322
296.784
297.177
297.558
297.946
298.359
298.807
299.299
299.83
300.387
300.964
301.588
302.424
303.872
306.277
288.929
290.266
291.137
291.686
292.108
292.474
292.784
293.037
293.242
293.412
293.56
293.695
293.826
293.958
294.097
294.25
294.43
294.669
295.01
295.472
296.018
296.573
297.088
297.537
297.944
298.363
298.818
299.315
299.847
300.403
300.979
301.605
302.439
303.878
306.276
288.92
290.25
291.134
291.694
292.129
292.51
292.833
293.093
293.3
293.467
293.611
293.74
293.864
293.986
294.113
294.247
294.393
294.566
294.794
295.117
295.565
296.114
296.698
297.26
297.788
298.284
298.778
299.292
299.831
300.392
300.972
301.599
302.433
303.864
306.26
288.912
290.241
291.135
291.707
292.156
292.555
292.893
293.162
293.37
293.536
293.675
293.799
293.916
294.032
294.151
294.276
294.407
294.549
294.716
294.93
295.23
295.651
296.188
296.788
297.392
297.973
298.536
299.099
299.672
300.256
300.856
301.503
302.35
303.791
306.228
288.907
290.238
291.145
291.73
292.196
292.616
292.97
293.247
293.458
293.621
293.755
293.873
293.984
294.094
294.208
294.327
294.452
294.583
294.726
294.894
295.108
295.397
295.799
296.324
296.929
297.56
298.187
298.806
299.423
300.042
300.67
301.338
302.202
303.667
306.172
288.904
290.242
291.161
291.761
292.246
292.69
293.063
293.35
293.562
293.723
293.852
293.964
294.069
294.174
294.282
294.397
294.519
294.648
294.787
294.939
295.118
295.347
295.649
296.057
296.584
297.2
297.859
298.529
299.204
299.875
300.539
301.227
302.105
303.596
306.147
288.908
290.262
291.189
291.802
292.307
292.776
293.169
293.465
293.68
293.839
293.964
294.071
294.171
294.27
294.374
294.486
294.607
294.739
294.884
295.04
295.212
295.41
295.667
296.021
296.487
297.067
297.731
298.437
299.151
299.848
300.524
301.216
302.098
303.597
306.151
288.915
290.286
291.223
291.849
292.377
292.873
293.286
293.593
293.809
293.966
294.087
294.19
294.286
294.381
294.481
294.59
294.711
294.848
295.002
295.17
295.354