/*--------------------------------*- C++ -*----------------------------------*\
| =========                 |                                                 |
| \\      /  F ield         | OpenFOAM: The Open Source CFD Toolbox           |
|  \\    /   O peration     | Version:  2.0.x                                 |
|   \\  /    A nd           | Web:      www.OpenFOAM.org                      |
|    \\/     M anipulation  |                                                 |
\*---------------------------------------------------------------------------*/
FoamFile
{
    version     2.0;
    format      ascii;
    class       volVectorField;
    location    "600";
    object      U;
}
// * * * * * * * * * * * * * * * * * * * * * * * * * * * * * * * * * * * * * //

dimensions      [0 1 -1 0 0 0 0];

internalField   nonuniform List<vector> 
78750
(
(-0.00522033 0.0255224 0.0442305)
(-0.0164 0.0186373 0.0638047)
(-0.0284852 -7.74062e-05 0.0631845)
(-0.0369499 -0.0179925 0.0612521)
(-0.0384656 -0.0316488 0.0596316)
(-0.0375673 -0.0417899 0.0598935)
(-0.0321373 -0.0498349 0.0588953)
(-0.0253103 -0.0555521 0.0579981)
(-0.0170446 -0.0596188 0.0571766)
(-0.0079879 -0.0622382 0.0564608)
(0.00148116 -0.0635216 0.0559035)
(0.0110861 -0.0638348 0.0555126)
(0.0205447 -0.0633342 0.0552062)
(0.0297334 -0.0621343 0.0548775)
(0.0384327 -0.0606331 0.0543715)
(0.0466086 -0.0587588 0.0538363)
(0.0542026 -0.0565112 0.0533158)
(0.0610411 -0.0539302 0.0528235)
(0.0672958 -0.0509212 0.052441)
(0.0724065 -0.0479871 0.0519256)
(0.0774096 -0.0434061 0.0521201)
(0.0800786 -0.0424298 0.0505465)
(0.0836043 -0.0359134 0.0504662)
(0.0843508 -0.0332758 0.0504914)
(0.0852137 -0.0287839 0.0504216)
(0.0845026 -0.0239619 0.0504069)
(0.082577 -0.0189253 0.0504205)
(0.079414 -0.0135233 0.0505614)
(0.0746382 -0.00777695 0.0508341)
(0.0679965 -0.00135835 0.0512313)
(0.0597289 0.00648495 0.0515489)
(0.0500394 0.0136968 0.0527687)
(0.0373275 0.0207797 0.0548945)
(0.0229536 0.029739 0.0568203)
(0.00722385 0.0344648 0.0383831)
(0.000321653 0.0442318 0.0293037)
(-0.000834919 0.0583584 0.0451973)
(-0.00485846 0.0412473 0.0478207)
(-0.0055613 0.00416699 0.0442389)
(-0.00540797 -0.0484904 0.0403941)
(-0.000851656 -0.0854537 0.0369374)
(0.00307116 -0.107501 0.0350163)
(0.00849264 -0.121774 0.0329348)
(0.0142335 -0.130433 0.0312279)
(0.0196796 -0.13487 0.0298932)
(0.0256428 -0.13604 0.0288704)
(0.0306886 -0.135088 0.0283616)
(0.0355052 -0.133265 0.0279787)
(0.0405066 -0.129641 0.0276003)
(0.0446838 -0.12497 0.0273592)
(0.048579 -0.119463 0.0272299)
(0.0520609 -0.113253 0.0272001)
(0.055094 -0.106446 0.0272648)
(0.0576514 -0.0990989 0.0274245)
(0.0597781 -0.0913392 0.0276368)
(0.0611785 -0.0831006 0.0279384)
(0.0626532 -0.072195 0.0298686)
(0.0626348 -0.0628269 0.0305602)
(0.0626891 -0.0536188 0.0303022)
(0.06181 -0.0437269 0.0302295)
(0.0603289 -0.0330096 0.0303274)
(0.058114 -0.0217079 0.0305183)
(0.0557881 -0.00957805 0.030945)
(0.0507547 0.0104334 0.0330525)
(0.0466421 0.0214407 0.0344197)
(0.0404542 0.0363215 0.0365545)
(0.0330099 0.056667 0.0387119)
(0.0235717 0.0805793 0.0419642)
(0.0123851 0.101028 0.0430162)
(0.00353152 0.0940905 0.0319594)
(0.000440773 0.0107971 0.0205592)
(0.00419252 0.0114219 0.0368956)
(0.0103191 -0.0210658 0.0390317)
(0.017809 -0.0642521 0.0378916)
(0.0245897 -0.107292 0.0334722)
(0.0289028 -0.137422 0.0296588)
(0.0320742 -0.156191 0.0267198)
(0.0344733 -0.166195 0.0247877)
(0.0361538 -0.17044 0.0235419)
(0.0376063 -0.170812 0.0226857)
(0.0384367 -0.169538 0.0223315)
(0.0393695 -0.166099 0.0219976)
(0.0400408 -0.161404 0.0217602)
(0.0405734 -0.155802 0.0215841)
(0.0410739 -0.149411 0.0214335)
(0.041488 -0.142371 0.0212994)
(0.0417969 -0.134762 0.0211801)
(0.0419759 -0.126627 0.0210824)
(0.0420028 -0.11798 0.0210264)
(0.0418564 -0.108813 0.0210399)
(0.041467 -0.0991591 0.0211142)
(0.0410691 -0.0891188 0.0211515)
(0.0402112 -0.0787561 0.0210132)
(0.0393192 -0.067377 0.0213261)
(0.0379378 -0.055143 0.0218613)
(0.0362078 -0.043033 0.021765)
(0.0342168 -0.0301394 0.0217975)
(0.03208 -0.0146812 0.0223084)
(0.0290056 0.00660141 0.0238118)
(0.0266245 0.019772 0.0248297)
(0.022725 0.0409322 0.0268634)
(0.018441 0.0682519 0.030254)
(0.0121425 0.100148 0.0342673)
(0.00591359 0.119711 0.0342832)
(0.00171274 0.105496 0.0249608)
(-0.000347196 -0.0124222 0.0159512)
(0.00240227 -0.0547251 0.0255003)
(0.00736227 -0.10357 0.0236959)
(0.0124679 -0.143705 0.0192753)
(0.0163752 -0.165852 0.0166732)
(0.0188493 -0.17769 0.0150587)
(0.0203314 -0.182381 0.0144288)
(0.0212652 -0.183546 0.014283)
(0.0219155 -0.183048 0.0143224)
(0.0227332 -0.181219 0.0144334)
(0.0235745 -0.178423 0.0144843)
(0.0243948 -0.174788 0.0144898)
(0.0252159 -0.170334 0.0144697)
(0.0260204 -0.165067 0.0144374)
(0.0267798 -0.15901 0.0144045)
(0.0274735 -0.152184 0.0143799)
(0.0280789 -0.144614 0.0143729)
(0.0285721 -0.136326 0.0143951)
(0.0289298 -0.127349 0.0144561)
(0.0291266 -0.117718 0.0145741)
(0.0291887 -0.107423 0.0148054)
(0.0289006 -0.0962345 0.0153233)
(0.0287735 -0.0837352 0.0165742)
(0.0280003 -0.0707238 0.0177779)
(0.0270337 -0.0571323 0.0189019)
(0.0258178 -0.0433721 0.0196466)
(0.0241816 -0.0301513 0.0193412)
(0.0223654 -0.0141008 0.0192255)
(0.0201983 0.00686099 0.0196471)
(0.0184076 0.0214073 0.0201523)
(0.0156839 0.0450168 0.0218345)
(0.0125044 0.0767531 0.0246984)
(0.0078594 0.112753 0.0285624)
(0.0033731 0.129247 0.0277901)
(0.0007358 0.107238 0.0187483)
(9.82334e-05 -0.0199765 0.00985501)
(0.00246514 -0.0749361 0.0141259)
(0.0055361 -0.12136 0.0132324)
(0.00799335 -0.152082 0.0123892)
(0.00974527 -0.170558 0.0120854)
(0.0111461 -0.181699 0.012076)
(0.0124354 -0.188705 0.0121349)
(0.0137558 -0.193132 0.0121026)
(0.0149995 -0.195332 0.0119832)
(0.0161864 -0.19548 0.0118557)
(0.0171881 -0.194082 0.0117967)
(0.0182311 -0.190837 0.0118147)
(0.0191112 -0.186249 0.0119226)
(0.0198687 -0.180502 0.0120936)
(0.0204832 -0.173739 0.0123032)
(0.0209547 -0.166084 0.0125331)
(0.0212874 -0.157643 0.0127681)
(0.0214851 -0.148492 0.0129999)
(0.0215522 -0.138686 0.0132269)
(0.0214937 -0.128269 0.0134493)
(0.0213054 -0.117284 0.0136623)
(0.0210007 -0.105758 0.0138598)
(0.0205815 -0.0935446 0.014073)
(0.0200847 -0.080336 0.0144497)
(0.0194676 -0.0660368 0.0150703)
(0.0186574 -0.0510664 0.0157948)
(0.0177791 -0.0360933 0.0161918)
(0.0165681 -0.0193874 0.0163837)
(0.0151954 0.000244051 0.0163578)
(0.0140092 0.0153788 0.0164377)
(0.0120246 0.0409706 0.0174767)
(0.00989725 0.0772722 0.0206802)
(0.00596497 0.116865 0.0231774)
(0.0025547 0.13195 0.0225649)
(0.000540489 0.106059 0.0159629)
(0.000183481 -0.0356983 0.00788577)
(0.00192178 -0.104264 0.01086)
(0.00383638 -0.152539 0.00955144)
(0.00576268 -0.179832 0.00804317)
(0.00744057 -0.194484 0.00699934)
(0.00891003 -0.202465 0.00631737)
(0.0101655 -0.206708 0.00585032)
(0.0112972 -0.208034 0.00566597)
(0.0122051 -0.207246 0.00569843)
(0.0130762 -0.204676 0.00587178)
(0.0138075 -0.200809 0.00615365)
(0.014436 -0.195969 0.00650377)
(0.0150095 -0.190278 0.00690429)
(0.0155288 -0.183817 0.00734713)
(0.0159965 -0.176652 0.00782501)
(0.0164056 -0.168833 0.00832325)
(0.01675 -0.160388 0.00883383)
(0.0170204 -0.151323 0.00935669)
(0.0172032 -0.141638 0.00989359)
(0.017285 -0.131334 0.0104431)
(0.017254 -0.120396 0.0110043)
(0.0170922 -0.108775 0.0115807)
(0.01678 -0.0964369 0.0121771)
(0.0163158 -0.0833804 0.0127949)
(0.0157365 -0.0696448 0.0134232)
(0.0150617 -0.0553092 0.0140554)
(0.0142676 -0.0404994 0.0146077)
(0.0134541 -0.0249101 0.0147316)
(0.012659 -0.0055103 0.0149748)
(0.0115704 0.0114608 0.0153181)
(0.00979401 0.0374467 0.0163956)
(0.00785115 0.0779463 0.0186843)
(0.00488068 0.119433 0.0210972)
(0.0020633 0.133894 0.0201822)
(0.000348486 0.103883 0.0135076)
(8.18239e-05 -0.0409835 0.00485301)
(0.00101184 -0.110186 0.00532998)
(0.00216732 -0.155759 0.00370803)
(0.00345061 -0.182282 0.0026506)
(0.00472932 -0.196589 0.00227337)
(0.00593897 -0.204357 0.00225064)
(0.00707067 -0.208533 0.0023785)
(0.00812522 -0.210451 0.00254094)
(0.00917552 -0.210662 0.00270949)
(0.0101391 -0.209508 0.00284177)
(0.0111408 -0.206887 0.00300232)
(0.0120738 -0.203059 0.00324111)
(0.0129598 -0.198119 0.00356727)
(0.013777 -0.192139 0.00397925)
(0.0145143 -0.185213 0.00446274)
(0.0151687 -0.177457 0.00499492)
(0.0157353 -0.168916 0.00558328)
(0.0161976 -0.159606 0.00625016)
(0.016531 -0.149558 0.00700583)
(0.0167211 -0.138818 0.00782957)
(0.0167622 -0.127429 0.00868749)
(0.0166563 -0.115406 0.00954795)
(0.0164091 -0.102722 0.01039)
(0.0160233 -0.0893405 0.0111976)
(0.0155104 -0.0752694 0.0119382)
(0.0148725 -0.0606893 0.0125529)
(0.0141115 -0.0461223 0.0129572)
(0.0132935 -0.031785 0.0129841)
(0.0124879 -0.0141673 0.0131407)
(0.0110779 0.0101841 0.0134484)
(0.00944732 0.0340835 0.0141759)
(0.00739821 0.0773896 0.0165531)
(0.00468787 0.120446 0.0187161)
(0.00208251 0.134828 0.0178837)
(0.000420841 0.10274 0.0116406)
(0.000126206 -0.0474226 0.0033375)
(0.00112978 -0.122363 0.00328325)
(0.00245501 -0.169788 0.00168991)
(0.00386949 -0.195772 0.000425886)
(0.0052053 -0.209035 -0.000373353)
(0.00648071 -0.215866 -0.000899492)
(0.00770472 -0.219142 -0.00126937)
(0.00892905 -0.219997 -0.00151941)
(0.0100324 -0.219047 -0.00167401)
(0.0111692 -0.216393 -0.00176835)
(0.0121958 -0.212451 -0.00176116)
(0.0131828 -0.207405 -0.00166129)
(0.0141025 -0.201416 -0.00147134)
(0.0149496 -0.19462 -0.00119238)
(0.0157097 -0.187141 -0.000838741)
(0.0163524 -0.179176 -0.000501232)
(0.0168362 -0.170495 -6.19036e-05)
(0.0171538 -0.160987 0.000633154)
(0.0173197 -0.150707 0.00157878)
(0.0173503 -0.139814 0.00270986)
(0.0172473 -0.128396 0.00397073)
(0.0170162 -0.116471 0.00532078)
(0.0166625 -0.103993 0.00672929)
(0.0161883 -0.0909148 0.00816274)
(0.0156076 -0.0772348 0.00956533)
(0.0149241 -0.0630664 0.0108534)
(0.0141171 -0.0487222 0.0119129)
(0.0131764 -0.0341613 0.0126067)
(0.012033 -0.0158489 0.0132604)
(0.0104681 0.00939508 0.0136343)
(0.00891164 0.0343887 0.0139329)
(0.00683292 0.0786076 0.0152517)
(0.00424159 0.122996 0.0164757)
(0.00185293 0.137323 0.0157032)
(0.000332239 0.102972 0.0101939)
(4.89062e-05 -0.0509486 0.00155574)
(0.000859654 -0.126657 0.00011634)
(0.00211105 -0.172766 -0.00163946)
(0.00354092 -0.197948 -0.0026063)
(0.00497474 -0.211035 -0.00303905)
(0.00637099 -0.217992 -0.00325279)
(0.00770852 -0.221562 -0.00339956)
(0.00902895 -0.222863 -0.0035322)
(0.010218 -0.222438 -0.0036737)
(0.0114411 -0.220437 -0.00386021)
(0.0125686 -0.217093 -0.0040407)
(0.0136515 -0.212533 -0.00419832)
(0.0146647 -0.206866 -0.0043132)
(0.0155988 -0.200166 -0.00434701)
(0.0164329 -0.192354 -0.00418141)
(0.0171141 -0.183236 -0.00365121)
(0.0176425 -0.173247 -0.00302446)
(0.0179622 -0.162768 -0.00182584)
(0.0181313 -0.151971 -0.000723205)
(0.0181316 -0.140811 0.000428019)
(0.0179766 -0.129238 0.00166573)
(0.0176841 -0.117243 0.00299558)
(0.017258 -0.104758 0.00441062)
(0.0166994 -0.0917311 0.00589144)
(0.0160232 -0.0781586 0.00739329)
(0.0152354 -0.0641149 0.00884215)
(0.0143065 -0.0497769 0.0101389)
(0.0131907 -0.0349049 0.0111984)
(0.0116486 -0.0161291 0.0122157)
(0.00984787 0.00970856 0.0131448)
(0.00838811 0.0356731 0.0137082)
(0.00626785 0.0810274 0.0146257)
(0.00388526 0.125147 0.015193)
(0.00170352 0.139149 0.013922)
(0.000273425 0.103095 0.00846087)
(8.86788e-05 -0.0546944 0.000503943)
(0.00104897 -0.134638 -0.00120235)
(0.00251829 -0.182928 -0.00280649)
(0.00414277 -0.208484 -0.00381495)
(0.00573139 -0.221125 -0.0044417)
(0.00726556 -0.227416 -0.00489761)
(0.00872951 -0.230209 -0.00528506)
(0.010171 -0.230599 -0.00563237)
(0.0114402 -0.229277 -0.00593571)
(0.0127216 -0.226187 -0.00627802)
(0.0138603 -0.2217 -0.00659965)
(0.01492 -0.215979 -0.00690538)
(0.0158766 -0.209181 -0.00721555)
(0.0166806 -0.201541 -0.00758348)
(0.0173288 -0.192818 -0.00774569)
(0.0178527 -0.183283 -0.00773609)
(0.0182786 -0.173084 -0.00726773)
(0.0186338 -0.162341 -0.00707678)
(0.0188334 -0.151012 -0.00654542)
(0.0188429 -0.13928 -0.0057914)
(0.0186454 -0.127354 -0.00481442)
(0.0182566 -0.115211 -0.00360092)
(0.017702 -0.102653 -0.00213922)
(0.0170143 -0.0896618 -0.000452198)
(0.0162159 -0.0762571 0.00139492)
(0.0153089 -0.0623757 0.00331377)
(0.0142646 -0.0476871 0.00522683)
(0.013041 -0.0310696 0.00711738)
(0.0113068 -0.0094803 0.00911709)
(0.00979449 0.0112273 0.0105104)
(0.00821127 0.0384921 0.011676)
(0.00600296 0.0846064 0.0128478)
(0.00368267 0.128643 0.0133438)
(0.0015844 0.142251 0.0122075)
(0.000231037 0.103741 0.00757394)
(9.15912e-05 -0.0577609 -0.000635019)
(0.0011 -0.139611 -0.00302561)
(0.00262736 -0.187594 -0.00464083)
(0.0042734 -0.212516 -0.00550702)
(0.0058854 -0.224839 -0.00599931)
(0.00744068 -0.231012 -0.00635421)
(0.00892848 -0.233772 -0.00667218)
(0.0103792 -0.234156 -0.00698297)
(0.0116547 -0.232795 -0.00729835)
(0.0129065 -0.229683 -0.00768305)
(0.0140208 -0.225141 -0.00808017)
(0.0150469 -0.219261 -0.00848567)
(0.0159444 -0.212042 -0.00891004)
(0.0167083 -0.20322 -0.00905032)
(0.0173703 -0.193662 -0.00894693)
(0.0178961 -0.183557 -0.00895844)
(0.018307 -0.172901 -0.00908571)
(0.0185818 -0.161472 -0.00921353)
(0.0186888 -0.149208 -0.00920306)
(0.0185917 -0.136324 -0.00896977)
(0.0182712 -0.123264 -0.00847916)
(0.0177323 -0.110274 -0.00771154)
(0.0170073 -0.0974054 -0.00665609)
(0.0161438 -0.0845179 -0.00530788)
(0.0151861 -0.0713389 -0.00367455)
(0.0141626 -0.0577064 -0.00179987)
(0.0130637 -0.0432323 0.000284657)
(0.011866 -0.0269112 0.00261193)
(0.0104872 -0.00666233 0.00524637)
(0.00932114 0.0130021 0.00725293)
(0.00770672 0.0435702 0.00948552)
(0.00551021 0.0897564 0.0111429)
(0.00329651 0.132736 0.0114973)
(0.00137581 0.145539 0.010284)
(0.000153476 0.104579 0.00602901)
(0.000111806 -0.0613098 -0.00118864)
(0.00116749 -0.147004 -0.00346024)
(0.00272805 -0.196441 -0.00477969)
(0.00437599 -0.2213 -0.00557031)
(0.00597429 -0.233052 -0.00615685)
(0.00749896 -0.23855 -0.00668347)
(0.00903114 -0.24056 -0.00720621)
(0.0103808 -0.240158 -0.00768322)
(0.0117359 -0.2377 -0.00824168)
(0.0129147 -0.23355 -0.00880842)
(0.0140045 -0.227883 -0.00938896)
(0.0148806 -0.220882 -0.00997842)
(0.0156736 -0.212395 -0.0103133)
(0.016318 -0.203159 -0.0107424)
(0.0168509 -0.193236 -0.011513)
(0.017309 -0.182451 -0.0122009)
(0.0176183 -0.170849 -0.0127713)
(0.0177797 -0.158404 -0.0131656)
(0.0177886 -0.145081 -0.0133353)
(0.017632 -0.131143 -0.0132417)
(0.0173046 -0.117135 -0.0128787)
(0.0168049 -0.103342 -0.0122424)
(0.0161396 -0.0899 -0.0113393)
(0.0153262 -0.0768442 -0.0101907)
(0.0144056 -0.0640524 -0.00882386)
(0.0134222 -0.0511168 -0.00722893)
(0.0123903 -0.0372199 -0.00530885)
(0.0112845 -0.0212502 -0.00289229)
(0.00997759 -0.00195631 0.000195882)
(0.0087818 0.0168014 0.00293554)
(0.00703451 0.0498587 0.00639258)
(0.00497222 0.0957636 0.0092041)
(0.00290683 0.137076 0.00999833)
(0.0011624 0.148815 0.00886321)
(8.34989e-05 0.105187 0.00494457)
(0.000134296 -0.0642261 -0.00185748)
(0.00119959 -0.152068 -0.00437437)
(0.00272534 -0.201432 -0.00558554)
(0.00430546 -0.22569 -0.00622319)
(0.00582838 -0.237023 -0.00669168)
(0.00728093 -0.242223 -0.00714494)
(0.00872285 -0.243946 -0.00763736)
(0.00999835 -0.24326 -0.0081237)
(0.0112596 -0.240431 -0.00871447)
(0.0123809 -0.23579 -0.00934684)
(0.0132864 -0.22948 -0.0100094)
(0.0141861 -0.22131 -0.0105837)
(0.0148337 -0.212364 -0.0112862)
(0.015407 -0.202424 -0.0120322)
(0.0158217 -0.191478 -0.0127029)
(0.0160518 -0.179677 -0.0132991)
(0.0161303 -0.167168 -0.013815)
(0.0160784 -0.15397 -0.0142333)
(0.0159156 -0.139939 -0.0145115)
(0.0156442 -0.125297 -0.0146117)
(0.0152603 -0.110639 -0.0145207)
(0.0147678 -0.0963153 -0.0142178)
(0.0141752 -0.0824642 -0.0136876)
(0.0134876 -0.0691282 -0.0129361)
(0.0127112 -0.0562386 -0.0119839)
(0.0118534 -0.0434835 -0.0108374)
(0.0109221 -0.0300891 -0.00941861)
(0.00987217 -0.0144678 -0.00747203)
(0.00872596 0.00454936 -0.00476945)
(0.0076266 0.0240464 -0.00199537)
(0.00598372 0.0575803 0.00224412)
(0.00415862 0.102748 0.00626003)
(0.00236147 0.141801 0.00790568)
(0.000848353 0.152095 0.00699665)
(-3.07759e-05 0.10532 0.00330401)
(0.000136771 -0.0675901 -0.00205904)
(0.00115395 -0.158585 -0.0042667)
(0.00259654 -0.208736 -0.00516777)
(0.00408144 -0.23263 -0.00568995)
(0.0055145 -0.243325 -0.00616269)
(0.00689088 -0.247834 -0.00667704)
(0.00826006 -0.248772 -0.0072667)
(0.00947098 -0.247268 -0.00787124)
(0.0106748 -0.243414 -0.00862122)
(0.0115889 -0.237634 -0.0094603)
(0.012533 -0.229851 -0.0103326)
(0.01317 -0.221107 -0.011296)
(0.0137362 -0.211003 -0.0122723)
(0.0140843 -0.199704 -0.0132189)
(0.0142406 -0.187466 -0.0141065)
(0.0142422 -0.174534 -0.0149023)
(0.0141178 -0.161095 -0.0155797)
(0.0139003 -0.147192 -0.0161126)
(0.013622 -0.132692 -0.0164638)
(0.0132927 -0.117627 -0.0166016)
(0.0128992 -0.102618 -0.0165435)
(0.0124384 -0.088116 -0.0163035)
(0.0119183 -0.0742314 -0.0158788)
(0.0113435 -0.0609573 -0.0152781)
(0.0107093 -0.0481496 -0.0145097)
(0.0100008 -0.0354344 -0.0135613)
(0.00920468 -0.0219361 -0.0123339)
(0.00829322 -0.00603435 -0.0105375)
(0.00751218 0.0104562 -0.00841938)
(0.00658374 0.0312098 -0.00568506)
(0.00509476 0.065319 -0.00134613)
(0.00343294 0.109727 0.00323017)
(0.00188302 0.146324 0.00566151)
(0.000619322 0.154979 0.00530173)
(-6.43143e-05 0.105163 0.00256292)
(0.000145267 -0.0701186 -0.00236021)
(0.00110403 -0.163012 -0.00453066)
(0.00244204 -0.213189 -0.00529377)
(0.00380125 -0.236643 -0.00572845)
(0.00510741 -0.246978 -0.00615155)
(0.00636621 -0.251148 -0.00664254)
(0.0076089 -0.251657 -0.00723026)
(0.00872189 -0.249597 -0.00787113)
(0.0096921 -0.244989 -0.00866868)
(0.0106539 -0.237929 -0.00963093)
(0.0113137 -0.229495 -0.010658)
(0.0118789 -0.219294 -0.0117146)
(0.0121941 -0.207645 -0.0127579)
(0.012299 -0.194927 -0.0137382)
(0.0122324 -0.181523 -0.0146126)
(0.012038 -0.167741 -0.0153561)
(0.0117607 -0.153755 -0.0159634)
(0.0114364 -0.139575 -0.0164377)
(0.0110945 -0.125034 -0.0167714)
(0.0107531 -0.109916 -0.0169382)
(0.0103996 -0.0947724 -0.0169582)
(0.010018 -0.0801892 -0.0168582)
(0.0096067 -0.0662792 -0.0166267)
(0.00916437 -0.0530039 -0.0162545)
(0.00868861 -0.0401764 -0.0157292)
(0.00817455 -0.0274372 -0.0150253)
(0.0075969 -0.0142065 -0.0140868)
(0.0069502 0.000485445 -0.0127457)
(0.00634872 0.0159047 -0.0111021)
(0.00547734 0.0396144 -0.00827094)
(0.00421792 0.0741798 -0.00403907)
(0.00274824 0.117322 0.000560973)
(0.00144974 0.150805 0.00321045)
(0.00042738 0.157437 0.0032498)
(-9.53374e-05 0.104489 0.00120265)
(0.000124706 -0.0728456 -0.00229989)
(0.000983656 -0.168159 -0.00398696)
(0.00218785 -0.218744 -0.00442035)
(0.00340683 -0.241744 -0.00476381)
(0.004576 -0.251491 -0.00521578)
(0.00574109 -0.255033 -0.00579254)
(0.0068283 -0.254805 -0.00645739)
(0.00785331 -0.25174 -0.00728662)
(0.00875504 -0.24585 -0.00834883)
(0.00947638 -0.237916 -0.00951652)
(0.010055 -0.227811 -0.0107977)
(0.0104178 -0.215912 -0.0121418)
(0.0105547 -0.202642 -0.0134747)
(0.010508 -0.188552 -0.0147042)
(0.0103251 -0.174137 -0.0157554)
(0.01006 -0.159709 -0.016592)
(0.00975492 -0.145383 -0.0172143)
(0.00943847 -0.131092 -0.0176424)
(0.00913051 -0.11663 -0.017893)
(0.00885185 -0.101769 -0.0179666)
(0.00859431 -0.0867681 -0.0178931)
(0.00833029 -0.0723333 -0.017745)
(0.00805455 -0.0585903 -0.0175311)
(0.00775738 -0.0455223 -0.0172542)
(0.0074298 -0.0329903 -0.0169068)
(0.0070609 -0.0206111 -0.0164596)
(0.00663161 -0.00728426 -0.0157367)
(0.00617537 0.00747826 -0.0146266)
(0.00562296 0.0233153 -0.0131501)
(0.00470602 0.0475057 -0.0104411)
(0.00361117 0.0822001 -0.00627848)
(0.00238927 0.124229 -0.0016361)
(0.00131962 0.155006 0.00116738)
(0.000444887 0.159851 0.00163019)
(-5.6534e-05 0.10446 0.000256453)
(0.000111856 -0.0746754 -0.00235002)
(0.000896806 -0.171503 -0.0037385)
(0.00198817 -0.22222 -0.00395168)
(0.00306791 -0.244949 -0.00422584)
(0.00409895 -0.254407 -0.00467028)
(0.00512863 -0.257593 -0.00526311)
(0.00608507 -0.256884 -0.00596283)
(0.00696796 -0.252906 -0.00688869)
(0.0077824 -0.245972 -0.00809518)
(0.00838637 -0.236732 -0.0094291)
(0.00883647 -0.225084 -0.0109316)
(0.00905355 -0.211487 -0.0125185)
(0.00907571 -0.196686 -0.0140583)
(0.00894394 -0.18144 -0.0154243)
(0.00871585 -0.1663 -0.0165344)
(0.00844155 -0.15153 -0.017363)
(0.0081575 -0.137142 -0.0179293)
(0.00788612 -0.122982 -0.0182736)
(0.00764137 -0.1088 -0.0184346)
(0.00743206 -0.0943372 -0.0184353)
(0.00726027 -0.0795356 -0.0182928)
(0.00709684 -0.0652435 -0.0181153)
(0.00693364 -0.0515802 -0.0179196)
(0.00675398 -0.0384874 -0.017709)
(0.00654059 -0.0258076 -0.0174722)
(0.00626751 -0.0132539 -0.0171831)
(0.00593215 -0.000101753 -0.0166963)
(0.00560448 0.0133265 -0.0159879)
(0.0051067 0.0314942 -0.0146434)
(0.00427014 0.0564618 -0.0122114)
(0.00323707 0.0908612 -0.00835202)
(0.00213244 0.131372 -0.00381727)
(0.0012122 0.159592 -0.000879505)
(0.000445022 0.162784 6.90294e-05)
(-4.38263e-05 0.10479 -0.000275643)
(8.18688e-05 -0.0766867 -0.00209203)
(0.000804296 -0.1754 -0.00270586)
(0.00180985 -0.22628 -0.00250147)
(0.00276779 -0.248499 -0.00271572)
(0.00368208 -0.257413 -0.0032316)
(0.00458909 -0.26003 -0.00394265)
(0.00543711 -0.258674 -0.0047847)
(0.00619424 -0.25384 -0.00588394)
(0.00686412 -0.24584 -0.00737386)
(0.0073703 -0.234951 -0.00903991)
(0.00768092 -0.221539 -0.0108816)
(0.00778085 -0.206283 -0.0127915)
(0.00771374 -0.190109 -0.0146145)
(0.00753675 -0.173885 -0.0162077)
(0.00730448 -0.158176 -0.0174818)
(0.0070577 -0.143174 -0.0184102)
(0.00682123 -0.128793 -0.0190142)
(0.00660778 -0.114793 -0.0193388)
(0.00642315 -0.100871 -0.0194313)
(0.00626859 -0.0867392 -0.0193294)
(0.0061581 -0.072303 -0.019065)
(0.00606534 -0.0582889 -0.0187741)
(0.00597735 -0.044816 -0.0184949)
(0.00588184 -0.0318458 -0.0182449)
(0.00577503 -0.0192252 -0.0180206)
(0.00563672 -0.0066499 -0.017799)
(0.00548381 0.00659635 -0.0174349)
(0.00523194 0.0204743 -0.0168754)
(0.00472019 0.0394552 -0.0157358)
(0.00395795 0.0652752 -0.0135964)
(0.00296101 0.0998329 -0.0100999)
(0.00183387 0.139 -0.00582984)
(0.000974433 0.164705 -0.00292071)
(0.000318527 0.166245 -0.00160119)
(-8.45003e-05 0.105606 -0.00117108)
(4.52117e-05 -0.0781645 -0.00186241)
(0.000757433 -0.178414 -0.00166937)
(0.00175088 -0.229439 -0.0010619)
(0.00263454 -0.251273 -0.00124793)
(0.00346196 -0.259784 -0.00184558)
(0.00427459 -0.261923 -0.00267768)
(0.00499955 -0.259874 -0.00369454)
(0.00571699 -0.253864 -0.00511612)
(0.00618944 -0.244849 -0.00668795)
(0.00654484 -0.232447 -0.00862214)
(0.00666648 -0.217283 -0.0107754)
(0.00660439 -0.200438 -0.012951)
(0.00641551 -0.183093 -0.0149651)
(0.00616658 -0.166159 -0.0166907)
(0.00590759 -0.150117 -0.0180652)
(0.00566708 -0.135043 -0.0190775)
(0.00545843 -0.120754 -0.0197494)
(0.00528649 -0.106946 -0.0201188)
(0.00515332 -0.0932921 -0.0202276)
(0.00506 -0.0795002 -0.0201121)
(0.0050217 -0.065455 -0.0198071)
(0.00500567 -0.0516609 -0.0194457)
(0.00498882 -0.0383286 -0.0190984)
(0.00496361 -0.0254974 -0.018804)
(0.00491752 -0.0130508 -0.0185784)
(0.00484544 -0.000442235 -0.018318)
(0.00475008 0.0122583 -0.0180081)
(0.00453236 0.0280784 -0.017468)
(0.00407143 0.0482775 -0.0164443)
(0.00337405 0.075056 -0.0145681)
(0.00243152 0.109788 -0.0114937)
(0.00134712 0.147256 -0.00763992)
(0.000604622 0.169957 -0.0049206)
(8.9026e-05 0.169674 -0.00338161)
(-0.000186346 0.10624 -0.00206464)
(-3.60188e-05 -0.080027 -0.00125478)
(0.000772316 -0.182577 0.000427682)
(0.0018945 -0.23369 0.00168784)
(0.00280816 -0.254666 0.00149412)
(0.00363724 -0.262387 0.000701787)
(0.00442018 -0.263788 -0.00037902)
(0.00510557 -0.260936 -0.00168604)
(0.00569885 -0.253835 -0.00356139)
(0.00605849 -0.242946 -0.00574592)
(0.00615553 -0.228548 -0.00826311)
(0.00601001 -0.211566 -0.010896)
(0.00571159 -0.193351 -0.0133822)
(0.00535524 -0.175161 -0.0155482)
(0.00500984 -0.157819 -0.017332)
(0.00470931 -0.141663 -0.0187366)
(0.00446361 -0.12666 -0.0197879)
(0.00427142 -0.112557 -0.0205159)
(0.00412914 -0.0990217 -0.0209503)
(0.00403457 -0.0857217 -0.0211216)
(0.00398765 -0.0723689 -0.021057)
(0.0039939 -0.0588078 -0.0207842)
(0.00403047 -0.0452376 -0.0203862)
(0.00405688 -0.0320384 -0.0199839)
(0.00406937 -0.0192694 -0.0196243)
(0.00405276 -0.00678772 -0.0193293)
(0.00403212 0.00593083 -0.0189896)
(0.00392668 0.019079 -0.018593)
(0.00365737 0.0355929 -0.0179595)
(0.00323316 0.056758 -0.0168817)
(0.00262678 0.0845077 -0.0150606)
(0.00182303 0.119367 -0.0122275)
(0.00092724 0.154999 -0.00886513)
(0.000364845 0.174772 -0.00646217)
(-2.01304e-05 0.172756 -0.00484061)
(-0.000223028 0.106772 -0.00278667)
(-8.02443e-05 -0.0825804 -0.000457485)
(0.00106632 -0.188363 0.00313173)
(0.00247876 -0.239692 0.00515399)
(0.00351528 -0.259615 0.00497307)
(0.00442791 -0.266274 0.00399078)
(0.00524078 -0.266582 0.00268671)
(0.00583964 -0.262423 0.00112796)
(0.00620793 -0.253261 -0.00169695)
(0.00627393 -0.239792 -0.00493876)
(0.00600683 -0.222845 -0.00842675)
(0.00549294 -0.203977 -0.0117437)
(0.00489065 -0.184775 -0.0145448)
(0.00432777 -0.166301 -0.0167285)
(0.00386473 -0.149053 -0.0183712)
(0.00351104 -0.133134 -0.0195993)
(0.00325208 -0.118398 -0.0205125)
(0.00306863 -0.104569 -0.0211688)
(0.0029458 -0.0913234 -0.0215974)
(0.00287432 -0.078344 -0.0218137)
(0.00284957 -0.0653545 -0.0218269)
(0.0028648 -0.0521658 -0.0216448)
(0.00292471 -0.0387787 -0.021285)
(0.0029837 -0.025649 -0.0208987)
(0.00304015 -0.0129138 -0.0205345)
(0.00307206 -0.000524698 -0.020223)
(0.00308505 0.0118651 -0.0198784)
(0.00300029 0.0262286 -0.0193948)
(0.00274891 0.0435075 -0.0186462)
(0.00235511 0.0653615 -0.0174488)
(0.00182565 0.0936503 -0.0155557)
(0.00119268 0.128233 -0.0127927)
(0.000560597 0.161965 -0.00971582)
(0.000195331 0.179225 -0.0075638)
(-5.16238e-05 0.175704 -0.00593359)
(-0.000203331 0.107331 -0.00335)
(-8.53501e-05 -0.0878334 0.00113284)
(0.00148581 -0.198197 0.00742487)
(0.00306583 -0.248801 0.0103013)
(0.00403377 -0.266698 0.0101204)
(0.00488368 -0.271529 0.00882512)
(0.00533807 -0.270126 0.00723476)
(0.00573653 -0.262599 0.00378457)
(0.00571593 -0.250724 0.000286099)
(0.00524966 -0.233881 -0.00418011)
(0.00445325 -0.213972 -0.00897751)
(0.00351675 -0.193444 -0.0132595)
(0.00266102 -0.173875 -0.0165367)
(0.00199471 -0.155808 -0.0187936)
(0.00153202 -0.139229 -0.0202665)
(0.00124079 -0.123946 -0.0212193)
(0.00107724 -0.109722 -0.0218476)
(0.00100271 -0.0962977 -0.0222653)
(0.000989909 -0.0833991 -0.0225251)
(0.00102271 -0.0707441 -0.0226423)
(0.00109259 -0.0580818 -0.0226143)
(0.00119134 -0.0452431 -0.0224325)
(0.00133967 -0.0322241 -0.0220964)
(0.00150143 -0.0193553 -0.0217429)
(0.00168205 -0.00673685 -0.0214073)
(0.00184391 0.00570691 -0.0211104)
(0.00193083 0.0184861 -0.0207449)
(0.00189407 0.0333047 -0.0202084)
(0.00172732 0.0511676 -0.0193769)
(0.00142162 0.0736195 -0.0180633)
(0.00100868 0.102201 -0.0160259)
(0.000555142 0.136173 -0.0133044)
(0.000182605 0.167955 -0.0103685)
(-9.50117e-06 0.183162 -0.00834533)
(-9.97432e-05 0.178368 -0.00668041)
(-0.000155603 0.1078 -0.00370146)
(-3.05155e-06 -0.0957243 0.00363169)
(0.00162274 -0.210888 0.0129011)
(0.00276127 -0.259293 0.0164728)
(0.00296898 -0.274342 0.0164313)
(0.00297588 -0.276477 0.0145468)
(0.00316656 -0.271568 0.0111072)
(0.00280298 -0.261496 0.00775088)
(0.00217122 -0.245058 0.003008)
(0.00108677 -0.223993 -0.00293438)
(-0.000159746 -0.201695 -0.00913133)
(-0.00125904 -0.180819 -0.0144297)
(-0.00203601 -0.162175 -0.0182967)
(-0.00248423 -0.145441 -0.0207833)
(-0.00266476 -0.13011 -0.0222555)
(-0.00265281 -0.115798 -0.0230611)
(-0.00251348 -0.102256 -0.0234654)
(-0.0022971 -0.0892942 -0.0236427)
(-0.00203741 -0.0767146 -0.0236872)
(-0.00175284 -0.0643099 -0.0236363)
(-0.0014503 -0.0518861 -0.0234937)
(-0.0011352 -0.0393121 -0.0232477)
(-0.000778335 -0.0265974 -0.0228889)
(-0.000423967 -0.0139988 -0.0225446)
(-4.19736e-05 -0.00158049 -0.0222347)
(0.000291615 0.0109513 -0.0219791)
(0.000549175 0.0244884 -0.0216118)
(0.000663577 0.0398952 -0.0210521)
(0.000635759 0.0583196 -0.0201716)
(0.00045705 0.0812577 -0.0187775)
(0.000178825 0.109952 -0.0166323)
(-0.000112577 0.143228 -0.0138787)
(-0.000272227 0.173156 -0.0110127)
(-0.000301232 0.186584 -0.00906131)
(-0.00022788 0.180638 -0.00734322)
(-0.000145271 0.107812 -0.00401328)
(0.000164289 -0.104758 0.0070445)
(0.000733196 -0.222651 0.0190241)
(0.000215006 -0.266167 0.0223346)
(-0.000451371 -0.276601 0.0208479)
(-0.00120573 -0.27662 0.0188533)
(-0.00227722 -0.269983 0.0169741)
(-0.00332676 -0.255763 0.0136315)
(-0.00477509 -0.234742 0.00834026)
(-0.00613843 -0.210885 0.00144813)
(-0.00700608 -0.188582 -0.00580244)
(-0.00754798 -0.169229 -0.0121014)
(-0.00771429 -0.152491 -0.0171765)
(-0.00769729 -0.137289 -0.020428)
(-0.00743789 -0.123145 -0.0224727)
(-0.00702555 -0.10968 -0.0236444)
(-0.00651539 -0.096687 -0.0242231)
(-0.00595276 -0.0840523 -0.0244375)
(-0.00536886 -0.0716642 -0.0244351)
(-0.00478161 -0.059395 -0.0242999)
(-0.00419771 -0.0471175 -0.0240709)
(-0.0036239 -0.034739 -0.0237597)
(-0.003026 -0.0222483 -0.0233678)
(-0.00244829 -0.00978271 -0.0230205)
(-0.00187312 0.00252152 -0.022729)
(-0.00134436 0.0155061 -0.0224608)
(-0.000929483 0.0295779 -0.0221302)
(-0.000633866 0.0456374 -0.0215769)
(-0.000499298 0.0647946 -0.0206739)
(-0.000518231 0.0883507 -0.0191972)
(-0.000675961 0.117166 -0.0171104)
(-0.0008283 0.149597 -0.0144107)
(-0.000809433 0.17749 -0.0116294)
(-0.000678092 0.18913 -0.00972287)
(-0.000417703 0.182018 -0.00787462)
(-0.000133641 0.107401 -0.00407113)
(1.73802e-05 -0.108183 0.00949593)
(-0.000789313 -0.22466 0.022238)
(-0.00234492 -0.2662 0.0259068)
(-0.00402115 -0.275815 0.0265832)
(-0.00576018 -0.274208 0.0264153)
(-0.00742929 -0.264229 0.0248942)
(-0.00916487 -0.247113 0.0213472)
(-0.0103482 -0.226352 0.015039)
(-0.0109186 -0.204791 0.00690367)
(-0.011266 -0.184005 -0.000358039)
(-0.0110996 -0.165096 -0.00630406)
(-0.01075 -0.148121 -0.0107974)
(-0.0102175 -0.133096 -0.0151124)
(-0.00971076 -0.119304 -0.018559)
(-0.00914151 -0.106254 -0.0210684)
(-0.00850697 -0.0935475 -0.0225107)
(-0.00782732 -0.0810777 -0.023318)
(-0.00711868 -0.0687554 -0.0236951)
(-0.00639989 -0.0564997 -0.0237869)
(-0.00568488 -0.0442276 -0.0236887)
(-0.00498936 -0.0318745 -0.0234544)
(-0.00427523 -0.0194287 -0.0231123)
(-0.0035652 -0.00696772 -0.0227951)
(-0.00288353 0.00537958 -0.0225129)