/*--------------------------------*- C++ -*----------------------------------*\
| =========                 |                                                 |
| \\      /  F ield         | OpenFOAM: The Open Source CFD Toolbox           |
|  \\    /   O peration     | Version:  2.0.x                                 |
|   \\  /    A nd           | Web:      www.OpenFOAM.org                      |
|    \\/     M anipulation  |                                                 |
\*---------------------------------------------------------------------------*/
FoamFile
{
    version     2.0;
    format      ascii;
    class       volScalarField;
    location    "500";
    object      alphat;
}
// * * * * * * * * * * * * * * * * * * * * * * * * * * * * * * * * * * * * * //

dimensions      [1 -1 -1 0 0 0 0];

internalField   nonuniform List<scalar> 
78750
(
1.10341e-07
1.39148e-05
1.7631e-05
2.17233e-05
2.55273e-05
2.61743e-05
2.54151e-05
2.50384e-05
2.46663e-05
2.45732e-05
2.46586e-05
2.49687e-05
2.53192e-05
2.57305e-05
2.62467e-05
2.68291e-05
2.74609e-05
2.81412e-05
2.88273e-05
2.92848e-05
3.05501e-05
3.01855e-05
3.12954e-05
3.32636e-05
3.25238e-05
3.24771e-05
3.21571e-05
3.11997e-05
2.94484e-05
2.68078e-05
2.49256e-05
2.2669e-05
1.95743e-05
1.6112e-05
1.51573e-07
8.9646e-08
1.71551e-05
1.16077e-05
9.26758e-06
1.11958e-05
1.81102e-05
2.81106e-05
3.44249e-05
3.90568e-05
4.26966e-05
4.46884e-05
4.75499e-05
5.01858e-05
5.16944e-05
5.45337e-05
5.68733e-05
5.93192e-05
6.17003e-05
6.42154e-05
6.58939e-05
6.96729e-05
7.33578e-05
7.16496e-05
6.95055e-05
6.89336e-05
6.73238e-05
6.11838e-05
4.28389e-05
4.25011e-05
4.4675e-05
3.17313e-05
2.48903e-05
2.16122e-05
2.38275e-05
3.36368e-07
2.45788e-08
4.29328e-06
5.42903e-06
8.20531e-06
1.42187e-05
2.5512e-05
4.16884e-05
5.68116e-05
6.5943e-05
7.09575e-05
7.38982e-05
7.53359e-05
7.6812e-05
7.80698e-05
7.87305e-05
7.90604e-05
7.92146e-05
7.9028e-05
7.83528e-05
7.60868e-05
6.90907e-05
6.37764e-05
6.23313e-05
6.11196e-05
6.21187e-05
5.95733e-05
4.47268e-05
3.81237e-05
4.27536e-05
3.39107e-05
2.26514e-05
1.84638e-05
1.9402e-05
3.14629e-05
4.03375e-07
2.8594e-08
4.63704e-06
9.10439e-06
1.75785e-05
3.32688e-05
5.23418e-05
6.6008e-05
7.40061e-05
7.91223e-05
8.26956e-05
8.54561e-05
8.71494e-05
8.80091e-05
8.79765e-05
8.72676e-05
8.59238e-05
8.41197e-05
8.17299e-05
7.89749e-05
7.61352e-05
7.2675e-05
6.77402e-05
6.11889e-05
5.35906e-05
4.8104e-05
4.65714e-05
4.13996e-05
3.2333e-05
3.23713e-05
2.71301e-05
1.75329e-05
1.40147e-05
1.62444e-05
2.81284e-05
4.16856e-07
3.65248e-08
4.46525e-06
9.85333e-06
1.89461e-05
3.24743e-05
4.76793e-05
6.08512e-05
7.05254e-05
7.71446e-05
8.12155e-05
8.35124e-05
8.4885e-05
8.51473e-05
8.47071e-05
8.36564e-05
8.21235e-05
8.00194e-05
7.73752e-05
7.41609e-05
7.04284e-05
6.63367e-05
6.20698e-05
5.75396e-05
5.26925e-05
4.94844e-05
4.98873e-05
4.59974e-05
3.51126e-05
3.2997e-05
2.54252e-05
1.48609e-05
1.14343e-05
1.39188e-05
2.57884e-05
4.18544e-07
6.74551e-08
4.86832e-06
1.19984e-05
2.56279e-05
4.59647e-05
6.32914e-05
7.36634e-05
8.02701e-05
8.48567e-05
8.79943e-05
9.04262e-05
9.22567e-05
9.33107e-05
9.24994e-05
9.07085e-05
8.82037e-05
8.50673e-05
8.14642e-05
7.75042e-05
7.35653e-05
6.96828e-05
6.54982e-05
6.0721e-05
5.53914e-05
5.08161e-05
5.03299e-05
4.74147e-05
3.6571e-05
3.23346e-05
2.54768e-05
1.412e-05
1.0039e-05
1.2443e-05
2.4287e-05
4.28675e-07
9.17897e-08
4.98383e-06
1.25589e-05
2.62708e-05
4.51191e-05
6.13615e-05
7.21147e-05
7.92342e-05
8.40831e-05
8.72537e-05
8.89356e-05
8.83128e-05
8.66442e-05
8.53356e-05
8.35867e-05
8.12694e-05
7.89081e-05
7.67038e-05
7.4718e-05
7.23737e-05
6.92713e-05
6.55565e-05
6.12738e-05
5.67021e-05
5.34179e-05
5.38558e-05
5.26716e-05
4.32306e-05
2.97737e-05
2.36869e-05
1.44333e-05
9.34031e-06
1.14355e-05
2.44714e-05
4.30377e-07
1.322e-07
5.38933e-06
1.44501e-05
3.2355e-05
5.52922e-05
7.05974e-05
7.90553e-05
8.43422e-05
8.77731e-05
9.06557e-05
9.23186e-05
9.24717e-05
9.1514e-05
9.00041e-05
8.76531e-05
8.4554e-05
8.17646e-05
7.86925e-05
7.54811e-05
7.22033e-05
6.88485e-05
6.54965e-05
6.21723e-05
5.89042e-05
5.64181e-05
5.56781e-05
5.2396e-05
4.22193e-05
2.88991e-05
2.30118e-05
1.41203e-05
9.09607e-06
1.1303e-05
2.47725e-05
4.29392e-07
1.654e-07
5.59404e-06
1.50964e-05
3.32158e-05
5.52312e-05
7.02335e-05
7.88603e-05
8.40926e-05
8.70126e-05
8.79206e-05
8.78688e-05
8.80134e-05
8.75008e-05
8.65451e-05
8.5327e-05
8.44363e-05
8.24325e-05
7.93691e-05
7.53715e-05
7.13171e-05
6.80521e-05
6.56026e-05
6.37511e-05
6.21265e-05
6.05982e-05
5.87597e-05
5.31556e-05
4.15307e-05
2.8366e-05
2.22107e-05
1.36904e-05
9.01918e-06
1.15134e-05
2.37266e-05
4.20698e-07
2.03563e-07
6.01417e-06
1.68374e-05
3.80819e-05
6.14059e-05
7.51396e-05
8.23825e-05
8.64808e-05
8.86524e-05
8.9993e-05
9.07094e-05
9.08302e-05
9.04743e-05
8.8857e-05
8.66704e-05
8.38224e-05
7.982e-05
7.53919e-05
7.09261e-05
6.74645e-05
6.5772e-05
6.56829e-05
6.64952e-05
6.73421e-05
6.67978e-05
6.24573e-05
5.25018e-05
3.93977e-05
3.09304e-05
2.25486e-05
1.26179e-05
8.93078e-06
1.20248e-05
2.12302e-05
3.96978e-07
2.25903e-07
6.19151e-06
1.72804e-05
3.79896e-05
6.0471e-05
7.4418e-05
8.18361e-05
8.5795e-05
8.76295e-05
8.81928e-05
8.78084e-05
8.68733e-05
8.60046e-05
8.50228e-05
8.33742e-05
8.05659e-05
7.74427e-05
7.36486e-05
6.94092e-05
6.58985e-05
6.44198e-05
6.50549e-05
6.65702e-05
6.7882e-05
6.84396e-05
6.59263e-05
5.68596e-05
4.28833e-05
3.23977e-05
2.17036e-05
1.21087e-05
8.87907e-06
1.23591e-05
1.91048e-05
3.71349e-07
2.32655e-07
6.30496e-06
1.76368e-05
3.88619e-05
6.16061e-05
7.53387e-05
8.22106e-05
8.56403e-05
8.70881e-05
8.74276e-05
8.70672e-05
8.62367e-05
8.5006e-05
8.36831e-05
8.19995e-05
7.98295e-05
7.6969e-05
7.34215e-05
6.91963e-05
6.51625e-05
6.24216e-05
6.12169e-05
6.25453e-05
6.60336e-05
6.86626e-05
6.73665e-05
5.89388e-05
4.49613e-05
3.34298e-05
2.02679e-05
1.15968e-05
9.24509e-06
1.361e-05
1.64188e-05
3.48426e-07
2.32697e-07
6.3238e-06
1.76102e-05
3.86095e-05
6.05643e-05
7.37859e-05
8.10284e-05
8.45681e-05
8.58889e-05
8.59457e-05
8.52753e-05
8.41516e-05
8.26654e-05
8.09817e-05
7.92529e-05
7.74464e-05
7.53915e-05
7.28226e-05
6.95825e-05
6.62239e-05
6.36567e-05
6.21605e-05
6.16869e-05
6.28144e-05
6.43773e-05
6.29635e-05
5.53902e-05
4.30651e-05
3.31682e-05
2.04568e-05
1.19113e-05
9.59563e-06
1.38749e-05
1.56027e-05
3.468e-07
2.23793e-07
6.24052e-06
1.73408e-05
3.83618e-05
6.07363e-05
7.43235e-05
8.14297e-05
8.48751e-05
8.62275e-05
8.63356e-05
8.56195e-05
8.43267e-05
8.26283e-05
8.06499e-05
7.85463e-05
7.64587e-05
7.42962e-05
7.20588e-05
6.95332e-05
6.67503e-05
6.40717e-05
6.19418e-05
6.05584e-05
5.98974e-05
5.96961e-05
5.79358e-05
5.1001e-05
4.02674e-05
3.26006e-05
2.0998e-05
1.24549e-05
1.00787e-05
1.45192e-05
1.47376e-05
3.55116e-07
2.16901e-07
6.19537e-06
1.69877e-05
3.70363e-05
5.93185e-05
7.37486e-05
8.1514e-05
8.54645e-05
8.6968e-05
8.69467e-05
8.59575e-05
8.43775e-05
8.24441e-05
8.03342e-05
7.81831e-05
7.617e-05
7.40507e-05
7.15662e-05
6.9061e-05
6.6891e-05
6.51202e-05
6.33787e-05
6.17113e-05
6.01145e-05
5.81026e-05
5.38796e-05
4.67953e-05
4.25982e-05
3.18763e-05
1.9406e-05
1.26775e-05
1.06766e-05
1.5725e-05
1.38099e-05
3.72443e-07
2.17585e-07
6.12981e-06
1.67433e-05
3.68677e-05
5.99214e-05
7.46998e-05
8.26612e-05
8.68712e-05
8.86276e-05
8.8803e-05
8.78913e-05
8.62463e-05
8.41024e-05
8.17343e-05
7.89996e-05
7.60649e-05
7.38812e-05
7.22514e-05
7.02669e-05
6.8152e-05
6.63924e-05
6.47083e-05
6.28665e-05
6.07543e-05
5.78743e-05
5.29886e-05
4.63976e-05
4.32133e-05
3.18477e-05
1.91207e-05
1.27876e-05
1.1265e-05
1.74389e-05
1.27869e-05
3.9248e-07
2.2892e-07
6.1875e-06
1.6948e-05
3.72979e-05
6.04562e-05
7.5352e-05
8.34986e-05
8.79387e-05
8.98367e-05
9.00288e-05
8.8963e-05
8.69704e-05
8.44638e-05
8.14232e-05
7.87104e-05
7.65603e-05
7.41916e-05
7.20701e-05
6.99701e-05
6.8192e-05
6.73836e-05
6.70323e-05
6.60587e-05
6.35487e-05
5.85987e-05
5.22141e-05
5.08807e-05
4.50917e-05
3.005e-05
1.89857e-05
1.29866e-05
1.17984e-05
1.90693e-05
1.20172e-05
4.12085e-07
2.46444e-07
6.32821e-06
1.74495e-05
3.83722e-05
6.15949e-05
7.62701e-05
8.42602e-05
8.8537e-05
9.02044e-05
9.01918e-05
8.90913e-05
8.67698e-05
8.37115e-05
8.10977e-05
7.83911e-05
7.53439e-05
7.27108e-05
7.05783e-05
6.86894e-05
6.72764e-05
6.72872e-05
6.81568e-05
6.82544e-05
6.66223e-05
6.27024e-05
5.7142e-05
5.49516e-05
4.49083e-05
2.9446e-05
1.90479e-05
1.32673e-05
1.24375e-05
2.0979e-05
1.13405e-05
4.2715e-07
2.65298e-07
6.5083e-06
1.8051e-05
3.95557e-05
6.27074e-05
7.70529e-05
8.48189e-05
8.88614e-05
9.02018e-05
8.97725e-05
8.75153e-05
8.52833e-05
8.32868e-05
8.0182e-05
7.6502e-05
7.31301e-05
7.02855e-05
6.81409e-05
6.65708e-05
6.56096e-05
6.64014e-05
6.85764e-05
7.00175e-05
6.96513e-05
6.71072e-05
6.27048e-05
5.96061e-05
4.72736e-05
3.06608e-05
1.94846e-05
1.34771e-05
1.29664e-05
2.29854e-05
1.07308e-05
4.35251e-07
2.80776e-07
6.68414e-06
1.8628e-05
4.07867e-05
6.40968e-05
7.81976e-05
8.56179e-05
8.91638e-05
9.00235e-05
8.88277e-05
8.70051e-05
8.47576e-05
8.13848e-05
7.78306e-05
7.44287e-05
7.1351e-05
6.87029e-05
6.67089e-05
6.53988e-05
6.47847e-05
6.60525e-05
6.91718e-05
7.21258e-05
7.37178e-05
7.29299e-05
7.21325e-05
6.29489e-05
4.61628e-05
3.12754e-05
2.01281e-05
1.40619e-05
1.38657e-05
2.589e-05
1.01509e-05
4.36565e-07
2.92213e-07
6.83362e-06
1.90627e-05
4.15658e-05
6.47448e-05
7.85001e-05
8.55173e-05
8.84885e-05
8.84129e-05
8.71212e-05
8.49087e-05
8.1578e-05
7.84057e-05
7.55248e-05
7.28938e-05
7.04393e-05
6.8101e-05
6.61036e-05
6.47179e-05
6.42518e-05
6.56161e-05
6.9023e-05
7.309e-05
7.62998e-05
7.67612e-05
7.52159e-05
6.44073e-05
4.7039e-05
3.18291e-05
2.07098e-05
1.47975e-05
1.5106e-05
2.92901e-05
9.70817e-06
4.3346e-07
2.96767e-07
6.933e-06
1.93416e-05
4.22267e-05
6.54635e-05
7.87824e-05
8.51642e-05
8.73659e-05
8.64987e-05
8.3912e-05
8.04921e-05
7.73457e-05
7.49238e-05
7.32605e-05
7.19984e-05
7.07075e-05
6.90842e-05
6.72142e-05
6.54929e-05
6.44828e-05
6.51095e-05
6.79869e-05
7.24037e-05
7.70933e-05
8.1272e-05
7.74207e-05
6.33724e-05
4.71815e-05
3.23612e-05
2.1449e-05
1.57338e-05
1.65843e-05
3.25117e-05
9.4207e-06
4.3198e-07
2.99184e-07
6.97609e-06
1.94816e-05
4.28643e-05
6.63589e-05
7.91634e-05
8.47726e-05
8.59138e-05
8.36824e-05
7.98525e-05
7.59325e-05
7.30961e-05
7.17558e-05
7.16406e-05
7.20326e-05
7.2151e-05
7.14831e-05
6.98737e-05
6.77272e-05
6.57746e-05
6.51166e-05
6.68103e-05
7.07187e-05
7.57168e-05
8.07677e-05
7.66824e-05
6.30576e-05
4.75912e-05
3.2963e-05
2.22893e-05
1.68751e-05
1.83633e-05
3.53982e-05
9.28288e-06
4.3338e-07
3.06953e-07
7.00695e-06
1.96107e-05
4.35283e-05
6.71137e-05
7.91476e-05
8.38087e-05
8.37871e-05
8.01148e-05
7.51572e-05
7.12365e-05
6.89678e-05
6.89007e-05
7.05594e-05
7.2855e-05
7.46626e-05
7.52246e-05
7.42217e-05
7.19434e-05
6.90891e-05
6.68451e-05
6.66338e-05
6.94246e-05
7.70665e-05
8.15213e-05
7.4391e-05
6.2722e-05
4.8377e-05
3.40644e-05
2.34113e-05
1.81304e-05
2.01547e-05
3.75898e-05
9.29865e-06
4.41989e-07
3.2716e-07
7.10744e-06
1.99898e-05
4.45384e-05
6.78809e-05
7.89161e-05
8.24802e-05
8.03588e-05
7.55642e-05
7.06481e-05
6.6341e-05
6.485e-05
6.64377e-05
7.03005e-05
7.4869e-05
7.86103e-05
8.04324e-05
8.00562e-05
7.77043e-05
7.41998e-05
7.09137e-05
6.94758e-05
7.11157e-05
7.74496e-05
7.94027e-05
7.25495e-05
6.31327e-05
5.00628e-05
3.61094e-05
2.5186e-05
1.96297e-05
2.17331e-05
3.91003e-05
9.42172e-06
4.60189e-07
3.57669e-07
7.30593e-06
2.07683e-05
4.61944e-05
6.89267e-05
7.86201e-05
8.01133e-05
7.69407e-05
7.21135e-05
6.58596e-05
6.14053e-05
6.08498e-05
6.42735e-05
7.05044e-05
7.7614e-05
8.3318e-05
8.62458e-05
8.6161e-05
8.35203e-05
7.93743e-05
7.53997e-05
7.32075e-05
7.37637e-05
7.81748e-05
7.85528e-05
7.18049e-05
6.30421e-05
5.11082e-05
3.79769e-05
2.71229e-05
2.13709e-05
2.36104e-05
4.10494e-05
9.53622e-06
4.79278e-07
3.84074e-07
7.53129e-06
2.15671e-05
4.79545e-05
6.98276e-05
7.81589e-05
7.87949e-05
7.49028e-05
6.78713e-05
6.07726e-05
5.70176e-05
5.75587e-05
6.22122e-05
7.0061e-05
7.8784e-05
8.59272e-05
8.98609e-05
9.01308e-05
8.74182e-05
8.31163e-05
7.92994e-05
7.73783e-05
7.74957e-05
7.96651e-05
7.74911e-05
6.99026e-05
6.11323e-05
5.03138e-05
3.85635e-05
2.85748e-05
2.32807e-05
2.62371e-05
4.37115e-05
9.54713e-06
4.89631e-07
3.8626e-07
7.60266e-06
2.17837e-05
4.84313e-05
6.99528e-05
7.76223e-05
7.73393e-05
7.2383e-05
6.53938e-05
5.85926e-05
5.38045e-05
5.34853e-05
5.82052e-05
6.64983e-05
7.6456e-05
8.53361e-05
9.09281e-05
9.24631e-05
9.05699e-05
8.67693e-05
8.32073e-05
8.11044e-05
8.11638e-05
7.9283e-05
7.3985e-05
6.77149e-05
5.9284e-05
4.89365e-05
3.82359e-05
2.95314e-05
2.54539e-05
2.99659e-05
4.5955e-05
9.52732e-06
4.93131e-07
3.82072e-07
7.60141e-06
2.18451e-05
4.85647e-05
6.97941e-05
7.69649e-05
7.63193e-05
7.13783e-05
6.42959e-05
5.72545e-05
5.23485e-05
5.09875e-05
5.39793e-05
6.1191e-05
7.14974e-05
8.21965e-05
9.02238e-05
9.38446e-05
9.3303e-05
9.02402e-05
8.69109e-05
8.43852e-05
8.30503e-05
7.95706e-05
7.33906e-05
6.63795e-05
5.74981e-05
4.74037e-05
3.77267e-05
3.04747e-05
2.80417e-05
3.46179e-05
4.70596e-05
9.5733e-06
4.95383e-07
3.79231e-07
7.58177e-06
2.17641e-05
4.84711e-05
6.95316e-05
7.65116e-05
7.58767e-05
7.04398e-05
6.22432e-05
5.42426e-05
4.96386e-05
4.85869e-05
5.0944e-05
5.72522e-05
6.71853e-05
7.89301e-05
8.92531e-05
9.53007e-05
9.64326e-05
9.41392e-05
9.07579e-05
8.76883e-05
8.55227e-05
8.08719e-05
7.36168e-05
6.57642e-05
5.6424e-05
4.64288e-05
3.74873e-05
3.1445e-05
3.05992e-05
3.9012e-05
4.7312e-05
9.61095e-06
4.98992e-07
3.87694e-07
7.55339e-06
2.17992e-05
4.88134e-05
6.96329e-05
7.60674e-05
7.47481e-05
6.71261e-05
5.78536e-05
5.11827e-05
4.73829e-05
4.68444e-05
4.99148e-05
5.64783e-05
6.6414e-05
7.85683e-05
9.017e-05
9.79631e-05
0.000100397
9.84914e-05
9.49182e-05
9.26774e-05
8.89193e-05
8.21613e-05
7.46914e-05
6.61623e-05
5.65251e-05
4.65759e-05
3.7986e-05
3.26282e-05
3.28719e-05
4.24633e-05
4.76371e-05
9.72648e-06
5.10972e-07
4.27429e-07
7.71378e-06
2.25826e-05
5.09276e-05
7.08693e-05
7.57031e-05
7.15618e-05
6.3015e-05
5.45984e-05
4.75404e-05
4.42478e-05
4.54088e-05
5.05047e-05
5.89891e-05
7.01e-05
8.26907e-05
9.45234e-05
0.000102716
0.000105749
0.000104648
0.000101539
9.78871e-05
9.19758e-05
8.40507e-05
7.58763e-05
6.69687e-05
5.71546e-05
4.7232e-05
3.88419e-05
3.39117e-05
3.4953e-05
4.54675e-05
4.80663e-05
9.84635e-06
5.24523e-07
5.00601e-07
8.04305e-06
2.41842e-05
5.44224e-05
7.20214e-05
7.37582e-05
6.88489e-05
5.98586e-05
4.95205e-05
4.27385e-05
4.13608e-05
4.52222e-05
5.3597e-05
6.47064e-05
7.69712e-05
8.90877e-05
9.95654e-05
0.000106639
0.000109345
0.000108424
0.000106075
0.000100899
9.3282e-05
8.53103e-05
7.65942e-05
6.73176e-05
5.75242e-05
4.7852e-05
3.97827e-05
3.53077e-05
3.70997e-05
4.84394e-05
4.79949e-05
9.84955e-06
5.26817e-07
5.8504e-07
8.47955e-06
2.67557e-05
5.76635e-05
7.23603e-05
7.26661e-05
6.44211e-05
5.29705e-05
4.46224e-05
4.14117e-05
4.28996e-05
4.80711e-05
5.67512e-05
6.76211e-05
7.9104e-05
8.9752e-05
9.82359e-05
0.000103939
0.000106734
0.000108772
0.00010744
9.93333e-05
9.10835e-05
8.37886e-05
7.5313e-05
6.61517e-05
5.67165e-05
4.76864e-05
4.03732e-05
3.67377e-05
3.96471e-05
5.21857e-05
4.71389e-05
9.79126e-06
5.19839e-07
6.11844e-07
8.61318e-06
2.7448e-05
5.90246e-05
7.14245e-05
6.79076e-05
5.94021e-05
5.28431e-05
4.90446e-05
4.6493e-05
4.63344e-05
4.89552e-05
5.39442e-05
6.15486e-05
7.13334e-05
8.17244e-05
9.02912e-05
9.62483e-05
0.000100114
0.000105432
0.000103075
9.39983e-05
8.75121e-05
8.05794e-05
7.26799e-05
6.40841e-05
5.53274e-05
4.71519e-05
4.08289e-05
3.83443e-05
4.26804e-05
5.57707e-05
4.64391e-05
9.70299e-06
4.98959e-07
6.0275e-07
8.58704e-06
2.78198e-05
5.76909e-05
6.82917e-05
6.73176e-05
6.43366e-05
6.03642e-05
5.64374e-05
5.40327e-05
5.20824e-05
5.11986e-05
5.20217e-05
5.49795e-05
6.01429e-05
6.66292e-05
7.41521e-05
8.12691e-05
8.78222e-05
9.53798e-05
9.44852e-05
8.66632e-05
8.15628e-05
7.57768e-05
6.87557e-05
6.10528e-05
5.32196e-05
4.62292e-05
4.11564e-05
3.9899e-05
4.53615e-05
5.82796e-05
4.5011e-05
9.56532e-06
4.78746e-07
5.12643e-07
8.20206e-06
2.49796e-05
5.15142e-05
6.60749e-05
6.96621e-05
6.94026e-05
6.72728e-05
6.46013e-05
6.19335e-05
5.89298e-05
5.60342e-05
5.37766e-05
5.26223e-05
5.28298e-05
5.46445e-05
5.77941e-05
6.19313e-05
6.71524e-05
7.42894e-05
7.84524e-05
7.54109e-05
7.16159e-05
6.86737e-05
6.38413e-05
5.75475e-05
5.09394e-05
4.49981e-05
4.09953e-05
4.09527e-05
4.77449e-05
6.03737e-05
4.43119e-05
9.7209e-06
4.73119e-07
3.7314e-07
7.43358e-06
2.09241e-05
4.38407e-05
6.31238e-05
7.11506e-05
7.22383e-05
7.08524e-05
6.89915e-05
6.59424e-05
6.26269e-05
5.96389e-05
5.68689e-05
5.48218e-05
5.32776e-05
5.22434e-05
5.17048e-05
5.17694e-05
5.28999e-05
5.48681e-05
5.67507e-05
5.82414e-05
5.88067e-05
5.83705e-05
5.68603e-05
5.3325e-05
4.85229e-05
4.38033e-05
4.07765e-05
4.15068e-05
4.8683e-05
6.10389e-05
4.50778e-05
9.91585e-06
4.8049e-07
2.54142e-07
6.59691e-06
1.71265e-05
3.63659e-05
5.84561e-05
7.08286e-05
7.43712e-05
7.41772e-05
7.23284e-05
6.91302e-05
6.53278e-05
6.15486e-05
5.83106e-05
5.60119e-05
5.46785e-05
5.35927e-05
5.25913e-05
5.1959e-05
5.10446e-05
4.90895e-05
4.62224e-05
4.79376e-05
4.94665e-05
4.76627e-05
4.81609e-05
4.73076e-05
4.49467e-05
4.19865e-05
3.997e-05
4.13924e-05
4.91245e-05
6.11786e-05
4.64483e-05
1.03962e-05
5.20027e-07
1.89352e-07
5.86278e-06
1.51611e-05
3.32802e-05
5.52426e-05
6.82732e-05
7.40591e-05
7.63725e-05
7.58842e-05
7.35729e-05
7.02322e-05
6.62246e-05
6.20665e-05
5.88105e-05
5.72388e-05
5.67653e-05
5.65967e-05
5.60615e-05
5.43351e-05
5.02033e-05
4.44536e-05
4.66501e-05
4.78701e-05
4.26502e-05
4.30681e-05
4.34149e-05
4.24192e-05
4.05839e-05
3.93729e-05
4.1256e-05
4.87825e-05
6.00808e-05
4.81518e-05
1.10077e-05
5.87588e-07
1.81562e-07
5.63957e-06
1.37952e-05
2.87629e-05
5.02114e-05
6.7364e-05
7.57486e-05
7.88264e-05
7.89772e-05
7.58787e-05
6.92977e-05
6.23503e-05
6.01743e-05
6.13819e-05
6.35275e-05
6.57484e-05
6.70982e-05
6.71995e-05
6.53025e-05
5.90604e-05
4.97155e-05
5.12515e-05
5.13534e-05
4.20162e-05
3.9886e-05
4.03367e-05
4.02457e-05
3.93168e-05
3.87645e-05
4.1048e-05
4.8596e-05
5.9246e-05
4.93268e-05
1.14526e-05
6.74808e-07
2.09128e-07
5.5978e-06
1.39987e-05
3.02888e-05
5.36749e-05
7.03202e-05
7.72147e-05
7.97668e-05
7.67527e-05
6.76856e-05
6.14612e-05
6.03686e-05
6.19619e-05
6.64702e-05
7.27091e-05
7.88051e-05
8.31187e-05
8.46271e-05
8.22383e-05
7.27002e-05
5.92675e-05
5.91241e-05
5.73092e-05
4.51665e-05
4.02773e-05
3.85632e-05
3.87819e-05
3.85887e-05
3.86762e-05
4.13152e-05
4.8775e-05
5.90562e-05
5.05892e-05
1.17262e-05
7.55758e-07
3.03505e-07
6.05493e-06
1.58119e-05
3.53513e-05
5.91577e-05
7.2126e-05
7.63606e-05
7.26301e-05
6.56081e-05
5.99827e-05
5.54785e-05
5.59973e-05
6.29346e-05
7.38973e-05
8.63516e-05
9.75571e-05
0.000105523
0.000108199
0.000103866
9.28452e-05
7.80289e-05
7.44409e-05
6.66899e-05
5.06997e-05
4.29984e-05
3.93835e-05
3.80339e-05
3.79181e-05
3.85714e-05
4.16082e-05
4.94627e-05
5.99722e-05
5.00365e-05
1.16136e-05
8.05427e-07
4.81177e-07
7.04642e-06
1.92103e-05
4.40625e-05
6.65084e-05
7.32414e-05
7.33838e-05
6.88597e-05
5.78626e-05
4.62914e-05
4.34904e-05
5.16858e-05
6.84271e-05
8.95975e-05
0.000109194
0.000122761
0.000129058
0.000128875
0.00012249
0.000109663
9.64877e-05
9.00935e-05
7.66925e-05
5.7842e-05
4.54999e-05
3.89263e-05
3.66257e-05
3.65571e-05
3.78597e-05
4.16803e-05
4.98563e-05
6.04541e-05
4.90684e-05
1.11633e-05
8.0744e-07
6.86039e-07
8.13383e-06
2.44934e-05
5.24558e-05
6.96607e-05
7.46204e-05
6.9813e-05
5.44039e-05
3.93393e-05
3.35198e-05
3.81422e-05
5.51123e-05
8.47487e-05
0.000115703
0.000135341
0.000143273
0.000144007
0.000140727
0.000134507
0.000124791
0.000114809
0.000101951
8.33068e-05
6.40161e-05
4.89779e-05
4.01519e-05
3.64614e-05
3.59387e-05
3.75849e-05
4.19551e-05
5.1361e-05
6.38977e-05
4.51428e-05
1.05146e-05
7.76688e-07
7.51954e-07
8.4899e-06
2.58571e-05
5.55578e-05
7.00228e-05
6.78014e-05
5.81065e-05
4.78737e-05
3.80849e-05
3.13774e-05
3.20523e-05
4.61005e-05
7.69224e-05
0.000111723
0.000134462
0.000144664
0.000147324
0.000145511
0.000140549
0.000132765
0.000124311
0.000106131
8.37293e-05
6.59492e-05
5.19539e-05
4.27889e-05
3.83928e-05
3.75419e-05
3.94008e-05
4.48811e-05
5.65421e-05
6.58799e-05
4.22275e-05
9.8275e-06
6.8619e-07
7.61329e-07
8.62516e-06
2.76435e-05
5.80494e-05
6.81246e-05
6.77527e-05
6.18301e-05
5.10926e-05
3.95105e-05
3.13287e-05
2.99408e-05
3.63e-05
5.33113e-05
8.20506e-05
0.000115528
0.000138084
0.000145753
0.000146574
0.000145244
0.000144331
0.000128523
0.000104434
8.54218e-05
6.9097e-05
5.58984e-05
4.67876e-05
4.18936e-05
4.06645e-05
4.30555e-05
5.03489e-05
6.13576e-05
6.76763e-05
3.8218e-05
9.33235e-06
6.13707e-07
7.93388e-07
8.6924e-06
2.76904e-05
5.65149e-05
6.80179e-05
6.73822e-05
6.05128e-05
5.05169e-05
4.14508e-05
3.55233e-05
3.21748e-05
3.3182e-05
4.39231e-05
6.51818e-05
9.17335e-05
0.000117568
0.000136453
0.000144808
0.000148917
0.000135698
0.000114035
9.86259e-05
8.40519e-05
7.02453e-05
5.8797e-05
5.06471e-05
4.62912e-05
4.59864e-05
4.99423e-05
5.66354e-05
6.57262e-05
6.88333e-05
3.50799e-05
8.86997e-06
5.53158e-07
7.84583e-07
8.67746e-06
2.7819e-05
5.54082e-05
6.49111e-05
6.44331e-05
6.11558e-05
5.69257e-05
5.0631e-05
4.40898e-05
3.84677e-05
3.53655e-05
3.54921e-05
4.11659e-05
5.61519e-05
7.88217e-05
9.93886e-05
0.000112968
0.000124563
0.000115829
9.76644e-05
8.77469e-05
7.83841e-05
6.86758e-05
6.01494e-05
5.44832e-05
5.20025e-05
5.25891e-05
5.5102e-05
6.17514e-05
7.19922e-05
6.84975e-05
3.28218e-05
8.63945e-06
4.96682e-07
6.53759e-07
8.31108e-06
2.56724e-05
5.07629e-05
6.29137e-05
6.61843e-05
6.66386e-05
6.51951e-05
6.19916e-05
5.71698e-05
5.08569e-05
4.30496e-05
3.65749e-05
3.32265e-05
3.35184e-05
3.78693e-05
4.99776e-05
6.81335e-05
8.58352e-05
8.59015e-05
7.801e-05
7.55527e-05
7.2331e-05
6.72464e-05
6.19383e-05
5.77591e-05
5.58674e-05
5.59925e-05
5.96948e-05
6.70265e-05
7.4647e-05
6.89886e-05
3.16975e-05
8.4093e-06
4.55321e-07
4.82944e-07
7.56718e-06
2.22914e-05
4.64515e-05
6.24432e-05
6.82753e-05
7.00321e-05
6.90225e-05
6.72469e-05
6.59291e-05
6.25825e-05
5.60402e-05
4.7544e-05
3.93995e-05
3.32363e-05
2.97849e-05
2.94622e-05
3.31914e-05
4.45171e-05
5.57922e-05
5.94591e-05
6.33543e-05
6.43221e-05
6.24993e-05
5.98636e-05
5.81346e-05
5.76998e-05
5.9561e-05
6.48263e-05
7.33618e-05
7.8598e-05
6.88588e-05
3.28325e-05
8.83696e-06
4.5316e-07
3.93625e-07
7.0239e-06
1.97801e-05
4.3018e-05
6.29178e-05
7.17507e-05
7.37921e-05
7.36501e-05
7.21061e-05
6.99814e-05
6.75986e-05
6.55039e-05
6.25772e-05
5.59938e-05
4.61656e-05
3.67899e-05
2.97274e-05
2.58698e-05
2.61824e-05
3.07755e-05
4.01927e-05
5.03295e-05
5.41479e-05
5.63827e-05
5.7961e-05
5.78056e-05
5.7983e-05
6.02097e-05
6.57993e-05
7.3708e-05
7.85889e-05
7.06838e-05
3.39964e-05
9.095e-06
4.6784e-07
3.49042e-07
6.67285e-06
1.8494e-05
4.07754e-05
6.20101e-05
7.2313e-05
7.66977e-05
7.77135e-05
7.76785e-05
7.6444e-05
7.44682e-05
7.22173e-05
7.01538e-05
6.81283e-05
6.38122e-05
5.50995e-05
4.36517e-05
3.29923e-05
2.54945e-05
2.21146e-05
2.46119e-05
3.24391e-05
4.12266e-05
4.68507e-05
4.9292e-05
5.25617e-05
5.55599e-05
5.97974e-05
6.60858e-05
7.40224e-05
7.94415e-05
7.32515e-05
3.80131e-05
9.91729e-06
5.35393e-07
2.87351e-07
5.9919e-06
1.64216e-05
3.783e-05
5.9892e-05
7.20318e-05
7.78625e-05
8.02627e-05
8.02902e-05
7.93339e-05
7.76861e-05
7.54328e-05
7.25791e-05
6.96309e-05
6.71947e-05
6.46346e-05
5.97162e-05
4.99857e-05
3.63785e-05
2.47565e-05
2.12609e-05
2.26934e-05
2.56928e-05
3.40627e-05
4.18159e-05
4.53591e-05
4.99694e-05
5.55304e-05
6.24972e-05
7.05723e-05
7.5942e-05
7.12761e-05
4.00928e-05
1.04648e-05
6.04871e-07
2.75515e-07
5.87017e-06
1.57444e-05
3.56624e-05
5.95997e-05
7.33118e-05
7.92141e-05
8.13184e-05
8.15219e-05
8.11259e-05
8.02311e-05
7.88865e-05
7.69706e-05
7.4193e-05
7.03854e-05
6.53966e-05
5.96372e-05
5.37766e-05
4.75635e-05
3.83551e-05
2.4961e-05
2.24523e-05
2.21023e-05
2.11107e-05
2.9201e-05
3.93399e-05
4.58804e-05
5.09388e-05
5.69035e-05
6.38287e-05
7.0139e-05
7.01216e-05
4.53335e-05
1.14436e-05
7.53338e-07
2.92337e-07
5.66114e-06
1.60739e-05
3.78886e-05
6.11094e-05
7.37739e-05
8.0289e-05
8.3904e-05
8.53547e-05
8.57481e-05
8.52179e-05
8.41093e-05
8.25605e-05
8.05255e-05
7.77948e-05
7.30251e-05
6.50783e-05
5.53616e-05
4.54022e-05
3.70078e-05
2.73559e-05
2.67336e-05
2.79427e-05
2.16301e-05
2.1167e-05
2.80532e-05
3.80389e-05
4.65437e-05
5.44677e-05
6.30643e-05
7.01233e-05
6.93301e-05
4.53517e-05
1.18872e-05
9.04564e-07
3.63501e-07
6.12556e-06
1.74468e-05
3.95833e-05
6.17616e-05
7.44216e-05
8.17839e-05
8.66665e-05
8.96956e-05
9.16985e-05
9.24928e-05
9.2309e-05
9.1607e-05
9.0107e-05
8.78101e-05
8.1041e-05
6.78175e-05
5.17705e-05
4.13297e-05
3.5386e-05
2.93511e-05
3.21744e-05
3.46765e-05
2.38682e-05
2.13176e-05
2.64316e-05
3.52303e-05
4.50829e-05
5.38268e-05
6.2142e-05
6.97677e-05
7.2233e-05
5.02567e-05
1.21588e-05
1.04449e-06
4.55268e-07
6.61273e-06
1.90102e-05
4.26041e-05
6.41143e-05
7.61851e-05
8.387e-05
8.95638e-05
9.37859e-05
9.71382e-05
9.96113e-05
0.000101065
0.000100938
9.89728e-05
9.29908e-05
8.22716e-05
6.41453e-05
4.38129e-05
3.23737e-05
2.98918e-05
3.26076e-05
3.95534e-05
3.74459e-05
2.61295e-05
2.27478e-05
2.81e-05
3.91088e-05
4.94327e-05
5.9138e-05
6.99299e-05
7.70271e-05
7.50033e-05
4.54149e-05
1.1651e-05
1.03124e-06
5.78845e-07
7.41146e-06
2.17295e-05
4.59309e-05
6.55775e-05
7.75782e-05
8.60316e-05
9.2723e-05
9.81126e-05
0.000102412
0.000105797
0.00010799
0.000108522
0.000106541
9.80935e-05
7.59303e-05
4.44933e-05
2.65048e-05
2.28304e-05
3.01884e-05
3.88424e-05
3.64439e-05
3.24548e-05
3.00576e-05
3.20812e-05
3.85297e-05
4.58863e-05
5.17663e-05
5.8238e-05
6.7372e-05
7.42891e-05
7.18227e-05
3.88846e-05
1.01755e-05
8.17186e-07
5.98527e-07
7.61414e-06
2.25254e-05
4.81636e-05
6.74062e-05
7.84336e-05
8.58981e-05
9.13639e-05
9.56595e-05
9.9204e-05
0.000101703
0.000102666
0.000101111
9.58723e-05
8.48324e-05
6.61439e-05
4.45188e-05
2.62451e-05
2.06294e-05
2.73349e-05
3.20821e-05
3.02494e-05
3.37658e-05
3.50177e-05
3.72143e-05
4.15783e-05
4.72293e-05
5.33365e-05
6.06413e-05
6.76729e-05
7.39875e-05
6.91865e-05
3.341e-05
9.05726e-06
6.04566e-07
5.68104e-07
7.73724e-06
2.2295e-05
4.6651e-05
6.62054e-05
7.72848e-05
8.3857e-05
8.81931e-05
9.14735e-05
9.43833e-05
9.70641e-05
9.90611e-05
9.9502e-05
9.75145e-05
9.10506e-05
7.59944e-05
5.22249e-05
3.22181e-05
2.07348e-05
2.09781e-05
2.25182e-05
2.38039e-05
3.10049e-05
3.50375e-05
3.79098e-05
4.17269e-05
4.61746e-05
5.2474e-05
6.08639e-05
7.06339e-05
7.57892e-05
6.64698e-05
3.00292e-05
8.42134e-06
4.81599e-07
5.43263e-07
7.62243e-06
2.22567e-05
4.83192e-05
6.78556e-05
7.75128e-05
8.22793e-05
8.49492e-05
8.7374e-05
9.04295e-05
9.39402e-05
9.70191e-05
9.85909e-05
9.77956e-05
9.45009e-05
8.7744e-05
7.42622e-05
5.23291e-05
3.03123e-05
2.21143e-05
1.79543e-05
1.84366e-05
2.72008e-05
3.38533e-05
3.80208e-05
4.16852e-05
4.62463e-05
5.25519e-05
6.10437e-05
7.11909e-05
7.63276e-05
6.44538e-05
2.87705e-05
8.46634e-06
4.53067e-07
4.74181e-07
7.225e-06
2.05688e-05
4.66746e-05
6.71382e-05
7.55527e-05
7.91787e-05
8.09416e-05
8.33684e-05
8.76148e-05
9.33361e-05
9.93032e-05
0.000104152
0.000106809
0.000106202
0.000101326
9.15144e-05
7.55179e-05
5.74419e-05
3.42924e-05
2.24264e-05
1.69275e-05
1.77401e-05
2.60691e-05
3.48892e-05
3.98403e-05
4.36279e-05
4.97198e-05
5.90765e-05
6.98139e-05
7.54896e-05
6.47449e-05
2.99267e-05
8.72879e-06
4.76123e-07
4.59093e-07
7.1159e-06
2.03815e-05
4.67962e-05
6.7089e-05
7.41663e-05
7.53091e-05
7.51248e-05
7.74788e-05
8.323e-05
9.12474e-05
9.97728e-05
0.000107145
0.00011263
0.000115513
0.000115324
0.00011104
0.000100473
8.14761e-05
6.06682e-05
3.97356e-05
2.30252e-05
1.68717e-05
1.84846e-05
2.45909e-05
3.32058e-05
3.99601e-05
4.65107e-05
5.57107e-05
6.63555e-05
7.17111e-05
6.38642e-05
3.16083e-05
9.25235e-06
5.30444e-07
4.33151e-07
6.97139e-06
2.03088e-05
4.63267e-05
6.62247e-05
7.13546e-05
6.98851e-05
6.87987e-05
7.18268e-05
7.9407e-05
8.99737e-05
0.000101428
0.000112096
0.000120249
0.000125112
0.000126756
0.000125015
0.000119464
0.000107863
8.59114e-05
6.07286e-05
4.03157e-05
2.27818e-05
1.60841e-05
1.78951e-05
2.49253e-05
3.55733e-05
4.54586e-05
5.4168e-05
6.1778e-05
6.80548e-05
6.34579e-05
3.29674e-05
9.42471e-06
5.60873e-07
4.30259e-07
6.78737e-06
1.96346e-05
4.7489e-05
6.59124e-05
6.76625e-05
6.42661e-05
6.25924e-05
6.60933e-05
7.49474e-05
8.75241e-05
0.000101132
0.0001133
0.00012287
0.000129722
0.000133049
0.000131813
0.000126022
0.000117393
0.000108847
9.59272e-05
7.06583e-05
4.36462e-05
2.68197e-05
1.84568e-05
1.80214e-05
2.3543e-05
3.35824e-05
4.44941e-05
5.53368e-05
6.53471e-05
6.47098e-05
3.74959e-05
1.01333e-05
6.56e-07
4.41064e-07
6.7744e-06
2.05249e-05
4.89142e-05
6.48633e-05
6.49504e-05
6.03162e-05
5.81853e-05
6.11274e-05
6.99636e-05
8.35395e-05
9.87897e-05
0.000113036
0.000124308
0.000131784
0.000135564
0.000135805
0.000131629
0.000123233
0.000115793
0.000109674
0.000100916
8.10349e-05
5.73423e-05
3.20704e-05
1.9361e-05
1.81913e-05
2.31063e-05
3.39596e-05
4.74871e-05
5.73508e-05
6.15737e-05
4.04413e-05
1.07445e-05
7.5596e-07
4.4307e-07
6.70118e-06
2.06996e-05
4.9431e-05
6.37269e-05
6.2733e-05
5.83638e-05
5.64581e-05
5.78355e-05
6.34516e-05
7.41645e-05
8.9431e-05
0.000105456
0.000118569
0.00012684
0.000130161
0.000129439
0.000125755
0.000120065
0.000115238
0.000114415
0.000113117
0.000110361
9.81841e-05
6.14929e-05
3.12435e-05
1.91754e-05
1.88815e-05
2.53099e-05
3.66392e-05
4.86236e-05
5.61124e-05
3.76999e-05
1.04972e-05
7.72473e-07
4.61811e-07
6.77901e-06
2.11504e-05
4.88088e-05
6.25397e-05
6.22737e-05
5.90424e-05
5.6098e-05
5.55242e-05
5.89982e-05
6.71088e-05
7.92038e-05
9.38444e-05
0.000107175
0.000115091
0.000117022
0.000115491
0.00011331
0.000111428
0.000109656
0.000110064
0.000124561
0.000135664
0.000123013
9.99286e-05
6.58628e-05
3.67044e-05
2.1618e-05
2.10359e-05
2.79793e-05
4.20792e-05
5.64774e-05
4.20243e-05
1.11098e-05
8.49359e-07
4.99613e-07
6.91347e-06
2.16231e-05
4.80199e-05
6.17929e-05
6.40089e-05
6.14981e-05
5.75734e-05
5.4732e-05
5.48478e-05
5.91478e-05
6.9255e-05
8.27482e-05
9.50206e-05
0.000102049
0.000101068
9.71624e-05
9.52784e-05
9.7579e-05
0.000106231
0.000127665
0.000140255
0.000133695
0.000131879
0.000126448
0.000109259
7.48132e-05
4.49152e-05
2.74571e-05
2.42604e-05
3.15703e-05
4.61737e-05
5.43142e-05
1.22763e-05
1.07947e-06
5.54838e-07
7.16992e-06