/*--------------------------------*- C++ -*----------------------------------*\
| =========                 |                                                 |
| \\      /  F ield         | OpenFOAM: The Open Source CFD Toolbox           |
|  \\    /   O peration     | Version:  2.0.x                                 |
|   \\  /    A nd           | Web:      www.OpenFOAM.org                      |
|    \\/     M anipulation  |                                                 |
\*---------------------------------------------------------------------------*/
FoamFile
{
    version     2.0;
    format      ascii;
    class       volScalarField;
    location    "500";
    object      k;
}
// * * * * * * * * * * * * * * * * * * * * * * * * * * * * * * * * * * * * * //

dimensions      [0 2 -2 0 0 0 0];

internalField   nonuniform List<scalar> 
78750
(
9.28821e-05
0.000408033
0.000506034
0.000538536
0.000563986
0.000597444
0.000628387
0.000653615
0.00067595
0.000695526
0.000712501
0.000727087
0.000739546
0.000749808
0.000758005
0.000764295
0.000768985
0.00077166
0.000773833
0.000773381
0.000773126
0.000773221
0.000772626
0.000770898
0.000766381
0.000759685
0.000751232
0.000741047
0.000729469
0.000716979
0.000703061
0.000686595
0.000666412
0.000590158
0.000141712
7.53834e-05
0.000250145
0.000328395
0.000392549
0.000479193
0.000566474
0.000640972
0.00070587
0.000761723
0.000808973
0.000848549
0.000880996
0.000906987
0.000927141
0.00094195
0.000951782
0.00095724
0.000957666
0.000955998
0.000950409
0.000940355
0.000924947
0.000905921
0.000884767
0.000863062
0.000841432
0.000820531
0.000800091
0.000776902
0.000752998
0.000728157
0.000699734
0.000662256
0.000569491
0.000315507
2.06446e-05
0.000137047
0.000256452
0.000388999
0.000529523
0.000653873
0.000752112
0.000825826
0.000881343
0.000923879
0.000956469
0.000980784
0.000998067
0.00100908
0.00101423
0.00101411
0.00101065
0.00100237
0.000989967
0.000974351
0.000955783
0.00093405
0.00090952
0.000882771
0.000854481
0.000826272
0.000796584
0.000763476
0.000734895
0.000711427
0.000692329
0.000672535
0.000626683
0.000541768
0.00037956
2.40235e-05
0.000237467
0.000441183
0.000618328
0.000747317
0.000836007
0.000897561
0.00094335
0.000979746
0.00100955
0.00103398
0.00105348
0.00106819
0.00107809
0.00108303
0.00108303
0.00107957
0.00107048
0.00105648
0.00103778
0.0010149
0.000988427
0.000958497
0.000924885
0.000887095
0.000846401
0.000804877
0.000761724
0.000719799
0.000683083
0.000652316
0.000626307
0.000585936
0.0005166
0.000393409
3.06891e-05
0.000264288
0.000474167
0.000640622
0.000764304
0.000854542
0.000924032
0.000979967
0.00102576
0.00106307
0.00109275
0.00111525
0.00113093
0.00114004
0.00114281
0.00114066
0.00113218
0.00111825
0.00109911
0.00107512
0.0010467
0.00101471
0.000979673
0.000941361
0.000899438
0.000855742
0.00081238
0.000767219
0.000721161
0.000678071
0.000637876
0.000602151
0.000559518
0.000497966
0.000395716
5.66978e-05
0.000337923
0.00058086
0.00075919
0.000878652
0.000960377
0.0010214
0.0010694
0.00110771
0.00113801
0.00116114
0.00117764
0.00118784
0.00119191
0.00119082
0.0011837
0.00117093
0.00115266
0.00112916
0.00110086
0.00106842
0.00103282
0.000994646
0.000953568
0.000909445
0.000863101
0.000816822
0.000768931
0.000719272
0.000671383
0.00062532
0.000583615
0.000540555
0.000486933
0.000405891
7.71681e-05
0.000370005
0.000613958
0.000784947
0.000901486
0.000985594
0.00105132
0.00110398
0.00114666
0.00118066
0.00120658
0.00122476
0.00123535
0.00123848
0.00123568
0.00122555
0.00120908
0.00118678
0.00115925
0.0011272
0.00109126
0.00105232
0.00101086
0.000966317
0.00091791
0.000868418
0.000820259
0.000772567
0.000721819
0.000669361
0.000618696
0.000572375
0.000527429
0.0004785
0.000407903
0.000111186
0.000434346
0.000696332
0.000871614
0.000983774
0.00106237
0.00112201
0.00116974
0.00120824
0.00123842
0.00126034
0.00127408
0.00127978
0.00127864
0.00127048
0.00125583
0.00123513
0.00120891
0.00117763
0.00114178
0.00110203
0.00105946
0.00101463
0.000967349
0.000917804
0.000867381
0.000817534
0.000766801
0.000712321
0.000656964
0.000605177
0.000558628
0.000514635
0.000470147
0.000407307
0.000139148
0.000466304
0.000724009
0.000895012
0.00100659
0.00108555
0.00114749
0.00119825
0.00123985
0.00127268
0.00129687
0.00131246
0.00131952
0.0013186
0.00130966
0.00129342
0.00127061
0.00124188
0.00120783
0.00116867
0.00112514
0.00107876
0.00103032
0.00097951
0.000926461
0.000872266
0.000817469
0.000760933
0.000701124
0.000642849
0.000591084
0.000546659
0.000505398
0.000463416
0.000399347
0.000171317
0.000515232
0.000778536
0.000947346
0.00105427
0.00113065
0.00119093
0.00124026
0.00128014
0.00131095
0.00133285
0.00134599
0.00135058
0.0013476
0.00133661
0.00131846
0.00129359
0.0012625
0.00122581
0.00118465
0.00114053
0.00109436
0.00104572
0.000993862
0.000938208
0.00087891
0.00081645
0.000751251
0.000684495
0.000622947
0.000569602
0.000527448
0.000491091
0.000449967
0.000377061
0.000190155
0.000527821
0.0007837
0.000952249
0.00106273
0.00114292
0.00120653
0.00125882
0.00130124
0.00133438
0.00135854
0.00137379
0.00138005
0.00137762
0.00136627
0.00134658
0.00131921
0.00128506
0.00124512
0.00120078
0.00115425
0.00110712
0.00105967
0.0010108
0.000959066
0.000903471
0.000841938
0.000771984
0.000698566
0.000628438
0.000565905
0.000516844
0.000478439
0.000434894
0.000352899
0.000195852
0.000534016
0.000794912
0.000970648
0.00108378
0.00116534
0.00122994
0.00128291
0.00132593
0.00135973
0.0013847
0.00140104
0.00140886
0.00140828
0.00139947
0.00138234
0.00135725
0.00132456
0.0012848
0.00123899
0.00118912
0.00113701
0.00108454
0.00103287
0.000980742
0.000926249
0.00086626
0.000796903
0.000719681
0.000642856
0.00056975
0.000511256
0.000467905
0.00041924
0.00033132
0.000195887
0.000535058
0.00079642
0.000972272
0.00108892
0.00117481
0.00124348
0.00129998
0.00134626
0.00138318
0.00141115
0.00143038
0.00144086
0.00144251
0.00143594
0.00142035
0.00139625
0.00136393
0.00132379
0.00127658
0.00122401
0.00116777
0.00110946
0.00105073
0.000993163
0.000935687
0.000874976
0.000806659
0.000730964
0.000654183
0.000577439
0.000511543
0.0004603
0.000408513
0.00032987
0.000188373
0.000529622
0.000797713
0.000982326
0.0011042
0.00119301
0.00126381
0.00132222
0.0013704
0.00140941
0.00143985
0.00146215
0.00147646
0.00148259
0.00148054
0.00146992
0.00145027
0.00142132
0.00138311
0.00133622
0.00128202
0.0012221
0.00115829
0.00109239
0.00102572
0.000959436
0.00089216
0.000820876
0.00074721
0.00067289
0.000594957
0.000520254
0.00046198
0.000408836
0.000337855
0.000182555
0.000527714
0.000799423
0.000988648
0.00111517
0.00120787
0.00128202
0.00134343
0.00139434
0.00143598
0.00146906
0.00149416
0.00151166
0.00152164
0.00152383
0.00151906
0.00150527
0.00148195
0.00144846
0.00140461
0.0013514
0.00129014
0.00122221
0.00114976
0.00107434
0.000997351
0.000918631
0.000840919
0.00076603
0.000689027
0.000608855
0.000531816
0.000469333
0.000414346
0.000354466
0.00018313
0.000534035
0.000815528
0.00101107
0.00114062
0.00123492
0.00131033
0.00137276
0.00142442
0.00146661
0.00150012
0.00152562
0.00154369
0.00155468
0.00155857
0.0015557
0.00154438
0.00152508
0.00149753
0.00146113
0.00141536
0.00135953
0.00129334
0.00121805
0.0011372
0.0010524
0.000964571
0.000879066
0.000797172
0.000712103
0.000624268
0.000542409
0.000478769
0.000424843
0.000373711
0.000192687
0.000553102
0.000841015
0.00103748
0.00116756
0.00126277
0.0013395
0.00140316
0.00145583
0.00149869
0.00153249
0.00155778
0.00157519
0.00158524
0.00158824
0.00158557
0.00157693
0.00156242
0.00154092
0.0015109
0.00147139
0.00142117
0.0013594
0.00128565
0.0011998
0.00110294
0.00100364
0.000912272
0.000823334
0.000731039
0.000638233
0.000553265
0.000489351
0.000437415
0.00039253
0.00020747
0.000577409
0.000870239
0.00106672
0.0011961
0.00129107
0.00136798
0.00143195
0.00148504
0.00152838
0.00156261
0.00158813
0.00160542
0.00161505
0.00161785
0.00161539
0.00160706
0.00159323
0.00157356
0.00154715
0.001513
0.00146895
0.00141346
0.00134528
0.00126363
0.00116898
0.0010676
0.000965492
0.000858443
0.000750598
0.000650468
0.000563999
0.00050127
0.000451186
0.000406993
0.000223382
0.000601966
0.0008976
0.00109253
0.00122067
0.00131533
0.00139241
0.0014568
0.00151056
0.00155475
0.00158991
0.00161614
0.00163346
0.00164223
0.00164298
0.00163771
0.00162588
0.00160946
0.00158912
0.0015646
0.0015343
0.00149565
0.00144677
0.00138599
0.00131235
0.0012263
0.00113206
0.00103089
0.0009158
0.000788573
0.00066806
0.000575223
0.000512974
0.000463754
0.000414795
0.00023645
0.000623699
0.000922248
0.00111626
0.00124297
0.00133662
0.00141286
0.00147686
0.00153086
0.00157605
0.00161274
0.00164066
0.00165947
0.00166894
0.00166919
0.00166225
0.00164805
0.00162931
0.00160761
0.0015836
0.00155534
0.00152033
0.00147662
0.00142259
0.00135749
0.00128275
0.00119881
0.00109961
0.000979006
0.000839848
0.0007003
0.00059146
0.00052623
0.000475062
0.000416138
0.000246113
0.000641586
0.000942884
0.00113627
0.00126188
0.00135464
0.00142997
0.00149339
0.00154756
0.0015938
0.00163236
0.00166294
0.00168463
0.00169631
0.00169741
0.00168942
0.00167257
0.00165009
0.0016247
0.00159844
0.00156993
0.0015372
0.0014982
0.00145102
0.00139448
0.00132857
0.00125122
0.00115497
0.00103283
0.000886342
0.000734104
0.000612099
0.000540189
0.000484377
0.000413251
0.000249966
0.000655364
0.000961122
0.00115466
0.00127891
0.00137009
0.00144378
0.00150593
0.00155964
0.00160681
0.0016482
0.00168329
0.00171055
0.0017279
0.00173362
0.0017279
0.00171115
0.0016861
0.00165616
0.00162428
0.00159103
0.00155609
0.00151809
0.00147501
0.00142564
0.00136804
0.00129657
0.00120345
0.00108208
0.000931903
0.000770736
0.000636831
0.000556757
0.000493823
0.000411882
0.000252012
0.00066908
0.000980894
0.00117482
0.00129748
0.00138665
0.00145805
0.00151806
0.00157039
0.00161765
0.0016612
0.0017007
0.00173447
0.00175943
0.00177264
0.00177255
0.00176005
0.00173574
0.00170309
0.00166503
0.00162391
0.00158179
0.00153944
0.00149566
0.00144889
0.00139557
0.00132864
0.00123978
0.00112151
0.000971619
0.000806547
0.000664001
0.000575876
0.000504948
0.000413273
0.000258579
0.000688563
0.00100604
0.00119906
0.00131913
0.00140538
0.0014737
0.00153072
0.00158064
0.0016268
0.00167152
0.00171461
0.00175505
0.00178859
0.00181097
0.00181973
0.00181482
0.00179606
0.00176567
0.0017254
0.00167787
0.0016267
0.00157539
0.00152605
0.0014776
0.00142403
0.0013575
0.0012702
0.00115376
0.00100477
0.000838439
0.000690876
0.000596497
0.000518558
0.000421511
0.000275654
0.000718153
0.00103794
0.0012271
0.00134306
0.00142552
0.00149022
0.00154381
0.00159072
0.00163436
0.00167783
0.00172454
0.00177131
0.00181291
0.00184329
0.00186068
0.00186334
0.00185289
0.0018283
0.00179088
0.00174261
0.00168716
0.00162948
0.00157408
0.00152095
0.0014639
0.00139554
0.00130811
0.00119232
0.00104313
0.000874104
0.000720045
0.000619035
0.000535912
0.0004389
0.000301445
0.000753293
0.00107045
0.00125304
0.00136344
0.00144136
0.00150208
0.00155183
0.00159437
0.00163518
0.00167821
0.00172532
0.00177461
0.00182182
0.0018627
0.00188952
0.00190063
0.00189758
0.00187992
0.00184782
0.00180275
0.00174813
0.00168905
0.00163081
0.0015742
0.00151392
0.00144341
0.0013552
0.00123967
0.00109025
0.000917133
0.000754659
0.00064581
0.00055712
0.000457151
0.000323783
0.000780302
0.00109384
0.00127143
0.00137761
0.00145204
0.00150933
0.00155515
0.00159411
0.00163139
0.00167184
0.00171934
0.00177158
0.00182194
0.00186507
0.00189779
0.00191855
0.00192449
0.00191503
0.0018897
0.00185016
0.00179986
0.00174374
0.00168654
0.0016288
0.00156634
0.00149373
0.00140424
0.00128883
0.00114039
0.000964684
0.000794892
0.000677701
0.000580483
0.000467064
0.000325639
0.000788023
0.00110378
0.00128149
0.00138612
0.00145814
0.00151259
0.00155564
0.00159184
0.00162419
0.0016595
0.00170196
0.00175274
0.00180697
0.00185726
0.00189784
0.00192634
0.0019404
0.00193881
0.00192119
0.00188852
0.00184387
0.00179193
0.00173646
0.00167736
0.00161245
0.00153793
0.00144718
0.00133139
0.00118388
0.00100793
0.000835585
0.000711608
0.000603681
0.000470441
0.000322098
0.000792178
0.00111316
0.00129262
0.00139669
0.00146685
0.0015187
0.0015586
0.00159144
0.00162202
0.00165696
0.00169981
0.00174945
0.00180225
0.00185265
0.00189563
0.00192843
0.00194834
0.00195342
0.00194307
0.00191694
0.00187764
0.00182914
0.00177464
0.00171436
0.0016473
0.00157056
0.00147833
0.00136269
0.00121722
0.00104432
0.000874739
0.000745863
0.000626365
0.000472679
0.000319682
0.000799814
0.00112662
0.00130771
0.00141167
0.00147994
0.00152825
0.00156343
0.00159198
0.00162073
0.00165649
0.00170066
0.0017532
0.00180812
0.00186026
0.0019053
0.00194008
0.00196217
0.00197031
0.00196388
0.00194234
0.00190739
0.00186186
0.00180812
0.00174637
0.00167609
0.00159545
0.00150008
0.00138389
0.00124075
0.00107331
0.000909823
0.000778207
0.00064768
0.000476215
0.000326828
0.000816184
0.00114724
0.00132778
0.00143084
0.00149785
0.0015432
0.00157347
0.00159583
0.00162103
0.00165873
0.00171396
0.00178055
0.001844
0.00189967
0.00194488
0.00197745
0.00199686
0.00200301
0.00199593
0.00197504
0.00194171
0.00189792
0.00184428
0.00178074
0.0017071
0.00162208
0.00152268
0.00140477
0.00126278
0.0011
0.000941896
0.000808993
0.000670745
0.000487726
0.000360428
0.000855299
0.00118139
0.00135475
0.00145347
0.00151754
0.0015592
0.00158258
0.00159573
0.00161333
0.00165193
0.00171626
0.00179477
0.0018753
0.00194366
0.00199513
0.00202929
0.00204751
0.00205087
0.00204179
0.00202001
0.00198662
0.00194241
0.00188697
0.00182029
0.00174235
0.00165227
0.00154798
0.00142689
0.00128439
0.00112469
0.000971095
0.000838251
0.000694854
0.000500732
0.000422399
0.000906284
0.0012155
0.00137842
0.00147288
0.00153547
0.00157456
0.00159203
0.00159355
0.0015969
0.00163083
0.00169921
0.00178886
0.00187593
0.00195008
0.00200788
0.00204884
0.00207439
0.0020854
0.00208135
0.00206303
0.00203195
0.00198863
0.00193255
0.00186376
0.00178218
0.00168735
0.00157808
0.0014521
0.00130663
0.0011474
0.000996697
0.000863796
0.000714966
0.000502955
0.000494042
0.000938022
0.00122649
0.00138524
0.00148228
0.00154801
0.00158842
0.00160324
0.00159846
0.00158909
0.0015956
0.00163888
0.0017225
0.00181263
0.00189973
0.00197393
0.00202994
0.00206781
0.00208843
0.00209261
0.00208234
0.00205807
0.0020195
0.00196614
0.00189804
0.00181505
0.00171721
0.00160432
0.00147431
0.00132597
0.00116695
0.00101923
0.000885349
0.00072885
0.000496308
0.00051686
0.000938255
0.00122637
0.00138544
0.00148317
0.00155266
0.0016025
0.00162244
0.00162284
0.0016072
0.001595
0.00159707
0.00161434
0.00166535
0.00174375
0.00183624
0.00191433
0.00197734
0.00202264
0.0020487
0.0020555
0.00204527
0.00201713
0.00197295
0.00191233
0.00183471
0.00173948
0.00162617
0.00149374
0.00134365
0.00118566
0.00104068
0.000905122
0.000738551
0.000476353
0.000509168
0.000904093
0.00119752
0.00136656
0.00147403
0.00155205
0.00160852
0.00165027
0.00166735
0.00166452
0.00164455
0.00161823
0.00160095
0.00159688
0.00161314
0.00164193
0.00170139
0.00177694
0.00185666
0.00191587
0.0019557
0.00197482
0.00197439
0.00194952
0.00190151
0.00183119
0.00174003
0.00163274
0.00150443
0.00135627
0.00120076
0.00105796
0.000919655
0.000741964
0.000457039
0.000432765
0.000829061
0.00114005
0.00132797
0.00144766
0.00153469
0.00160117
0.00165165
0.00169161
0.00172468
0.00173618
0.00172989
0.00170476
0.00166808
0.00162843
0.00160007
0.00158683
0.00159185
0.00161997
0.00167595
0.00174237
0.00180538
0.00185041
0.00186649
0.00185013
0.00180316
0.00172952
0.00163052
0.00150749
0.0013659
0.00121625
0.00107723
0.000937676
0.000752283
0.000451667
0.00031459
0.000731273
0.00106082
0.00127348
0.00140924
0.00150517
0.00158034
0.00164134
0.00169119
0.00173336
0.00177445
0.00181328
0.00183335
0.00183807
0.00181493
0.00176622
0.00170101
0.00163161
0.00157322
0.00153418
0.00152399
0.00155029
0.00161237
0.00168037
0.00172556
0.0017308
0.0016926
0.00161523
0.00150604
0.0013725
0.00122869
0.00109271
0.000954195
0.000764974
0.000458709
0.000214001
0.000635997
0.000976801
0.00121952
0.00137913
0.00149012
0.00157279
0.00163648
0.00168837
0.00173387
0.00177826
0.00182713
0.00188097
0.00193109
0.00196584
0.00197438
0.00195051
0.00189393
0.00180946
0.00170698
0.00160228
0.00152331
0.00149321
0.00150165
0.00154029
0.00157963
0.0015949
0.00156915
0.00149065
0.0013724
0.00123942
0.00110965
0.000975453
0.00078911
0.000496517
0.000159336
0.000580405
0.000943887
0.00120692
0.00137553
0.0014893
0.00157323
0.00163892
0.0016932
0.00174236
0.00179313
0.0018526
0.00192341
0.00199988
0.00206915
0.00211644
0.0021302
0.00211524
0.00206489
0.00197962
0.00185883
0.0017181
0.00159701
0.00151928
0.0014881
0.00148879
0.00150271
0.00149923
0.00145292
0.00136343
0.00124531
0.00112462
0.000998603
0.000822408
0.000561166
0.000152761
0.000576246
0.000944135
0.00121946
0.0014058
0.00152697
0.00161081
0.00167304
0.00172265
0.00176927
0.00182654
0.00190836
0.00201937
0.00214497
0.00226037
0.00234362
0.00237981
0.00237217
0.00232358
0.00223397
0.00210168
0.00193826
0.00177979
0.00163026
0.00151992
0.00147379
0.0014557
0.00145109
0.00142289
0.00135459
0.00125351
0.00114234
0.00102347
0.000859881
0.000644718
0.00017598
0.000641326
0.00104842
0.00132067
0.00148727
0.00159147
0.00166232
0.00171375
0.00175384
0.00179954
0.00187899
0.00201282
0.00219672
0.00239626
0.00257285
0.00269873
0.00275949
0.00275564
0.00270072
0.00258297
0.00241249
0.00220712
0.00200771
0.00181368
0.00163914
0.00151302
0.00146057
0.00143118
0.00140306
0.00134845
0.00126175
0.00116023
0.00104989
0.000901787
0.0007224
0.000255582
0.000772041
0.00117849
0.00141201
0.00154512
0.00162912
0.0016861
0.00172268
0.00175902
0.00182382
0.00196673
0.0021976
0.00248757
0.00275384
0.00295323
0.00307658
0.00313666
0.00313545
0.00308681
0.00296624
0.00276824
0.00250791
0.00223928
0.00198424
0.00176297
0.00159891
0.00149327
0.00143859
0.00139685
0.00134036
0.00126347
0.00117235
0.00107133
0.000935699
0.000770187
0.000405783
0.000938053
0.00129309
0.00147857
0.00158339
0.00164868
0.00169154
0.00172156
0.00175139
0.00182878
0.00202913
0.00237941
0.00271697
0.00297218
0.00315053
0.0032663
0.00332015
0.00331718
0.00325713
0.00313677
0.00295453
0.00271978
0.00245229
0.00215516
0.00186268
0.00163495
0.00150276
0.00143972
0.0013968
0.00134298
0.00127052
0.00118526
0.00109108
0.000963498
0.000772221
0.000579557
0.00103972
0.00133141
0.00149245
0.00158788
0.00164863
0.00168148
0.00168994
0.0016989
0.00178189
0.00202476
0.00238794
0.00273031
0.00298295
0.00316119
0.00328319
0.00335463
0.00337421
0.00334314
0.00325584
0.00311116
0.00291521
0.00267057
0.00237845
0.00206198
0.00177904
0.00158395
0.00147205
0.00140979
0.0013538
0.00128184
0.00120041
0.00110658
0.000966385
0.000742869
0.000635658
0.00105075
0.00133546
0.00149375
0.00158821
0.00164818
0.00167881
0.0016798
0.00165885
0.00164807
0.00174867
0.00204842
0.00240326
0.00271336
0.00295438
0.00313628
0.00326346
0.0033339
0.0033451
0.00329845
0.00319597
0.00303698
0.00281383
0.00253043
0.00221411
0.00191642
0.00169139
0.0015489
0.00145877
0.0013835
0.00130352
0.0012182
0.00111646
0.000960065
0.000656115
0.000643629
0.00104258
0.00131537
0.00147296
0.00157438
0.00164468
0.00168252
0.00168654
0.00166248
0.00163256
0.00163356
0.00171409
0.00197752
0.00230386
0.00259501
0.0028276
0.00300888
0.00314032
0.00321671
0.00323325
0.00319115
0.00308269
0.00290227
0.00265358
0.00235828
0.00206394
0.00182196
0.00165193
0.00153428
0.00143847
0.00134516
0.00124768
0.00112867
0.000938836
0.000586651
0.000670932
0.00102294
0.00129541
0.00146141
0.00156921
0.00164471
0.00169108
0.00170144
0.00168171
0.00164035
0.00161913
0.0016377
0.0017597
0.00200782
0.00227436
0.00252218
0.00272743
0.00288733
0.00299962
0.00306269
0.00307159
0.00301447
0.00288126
0.00267622
0.00242433
0.00215908
0.00192343
0.00173986
0.00160051
0.001484
0.00137487
0.00126567
0.00113028
0.000908359
0.000528688
0.000663501
0.000981384
0.00125928
0.00142984
0.00154497
0.00163143
0.00169164
0.00171662
0.00171611
0.00168028
0.0016296
0.00160094
0.00159607
0.00163164
0.00180635
0.00206708
0.00231287
0.00252817
0.00269511
0.00281301
0.00287242
0.00287212
0.00279266
0.0026402
0.0024296
0.00220496
0.00199488
0.00181937
0.00167335
0.00154408
0.00142118
0.00129428
0.00113155
0.000878403
0.000474635
0.000552378
0.00088746
0.00118415
0.00137057
0.0014979
0.00159677
0.00167367
0.00172772
0.00176007
0.00176837
0.00173653
0.00167692
0.00161011
0.00156548
0.00155111
0.00156967
0.00171733
0.00194985
0.00218479
0.00239066
0.00255411
0.00263149
0.00263192
0.00254987
0.00240629
0.0022231
0.00204366
0.00187237
0.00171638
0.00157446
0.00144165
0.00130613
0.00113226
0.000851237
0.000435036
0.000407428
0.000793292
0.0011069
0.0013065
0.00144196
0.00154821
0.00163626
0.00170727
0.0017625
0.0018006
0.00181756
0.00180861
0.00176287
0.0016865
0.00160227
0.00154033
0.00152246
0.00155259
0.00168378
0.00187525
0.0020792
0.00226092
0.00236475
0.00237699
0.00231068
0.00219245
0.00204363
0.00189883
0.00175666
0.00161766
0.00148007
0.00133223
0.00114009
0.000851963
0.00043296
0.000331795
0.000733557
0.00105442
0.00126942
0.00141527
0.00152778
0.00162224
0.00170139
0.00175991
0.00180122
0.00182813
0.00183819
0.00183621
0.00181148
0.00175606
0.00167204
0.00158023
0.00152492
0.00151911
0.00159404
0.00175174
0.00191937
0.00205304
0.00213505
0.00216344
0.00212559
0.00203121
0.00189936
0.00176832
0.00163463
0.00149687
0.00134911
0.00115817
0.00086223
0.000446992
0.000294122
0.000701894
0.00102601
0.00124878
0.00140139
0.001519
0.00161798
0.00170174
0.00177099
0.00182438
0.00185982
0.00187471
0.00187431
0.00186054
0.0018349
0.00179249
0.0017255
0.00163407
0.00154304
0.00149945
0.00153431
0.00165807
0.00180682
0.00192386
0.00198916
0.00199498
0.001953
0.00187461
0.00176523
0.00164312
0.00151345
0.00137262
0.00119242
0.000911223
0.000511695
0.000242002
0.000645565
0.000976845
0.00121612
0.00138297
0.00151056
0.00161501
0.00170454
0.00178144
0.00184482
0.00189326
0.00192484
0.00193668
0.00193005
0.00190747
0.00187245
0.00182784
0.00177083
0.00169301
0.00159509
0.00150914
0.00149686
0.00156139
0.00170013
0.00182058
0.00188647
0.00189058
0.0018507
0.00176022
0.00164896
0.00152653
0.00139222
0.00122077
0.000948982
0.000578219
0.000231998
0.000639567
0.000971015
0.00121298
0.00138186
0.00151084
0.00162021
0.00171589
0.00179792
0.0018657
0.00191856
0.00195581
0.00197644
0.00197999
0.00196963
0.00194208
0.00190057
0.00184862
0.00178969
0.00172476
0.00164461
0.00154531
0.00149251
0.00151037
0.00162234
0.0017358
0.00179768
0.00179738
0.00175452
0.00166553
0.00155437
0.0014295
0.00127544
0.00103539
0.000720623
0.000246187
0.000648514
0.000984513
0.00122625
0.00139853
0.00153448
0.00165108
0.00175289
0.00184066
0.00191375
0.00197115
0.00201154
0.00203287
0.0020339
0.0020209
0.00199054
0.00194758
0.00189318
0.00183873
0.00178217
0.00172622
0.00164301
0.00154676
0.00149075
0.00149451
0.00158661
0.00169148
0.001747
0.00174218
0.00167723
0.00158262
0.00146449
0.0013143
0.00108948
0.000865945
0.000306274
0.0007065
0.00103018
0.00125909
0.00142509
0.00155962
0.00167791
0.00178426
0.00187821
0.00195746
0.00201946
0.00206218
0.00208387
0.00208345
0.00206352
0.00201847
0.00196411
0.00190756
0.00187026
0.00186793
0.00187651
0.00185155
0.00176602
0.00160894
0.00151491
0.00153106
0.00160202
0.0016703
0.00169513
0.00167086
0.001596
0.00149751
0.00137045
0.00118519
0.00100083
0.000383857
0.000760374
0.0010639
0.00128186
0.00144439
0.00158074
0.00170334
0.00181598
0.00191673
0.00200152
0.00206715
0.00211006
0.00212746
0.0021198
0.00208132
0.0020175
0.00193346
0.00184716
0.00184403
0.00192131
0.00203882
0.00206532
0.00199462
0.0017959
0.00158187
0.00154352
0.00160447
0.00166537
0.00168234
0.00165782
0.00159368
0.00150116
0.0013798
0.00119788
0.000988406
0.000488511
0.000818823
0.00109608
0.00130068
0.00145773
0.00159345
0.00172011
0.00183902
0.00194748
0.00203743
0.00210708
0.00214904
0.00215834
0.00213503
0.00207573
0.00198139
0.00183375
0.00167535
0.0016918
0.0018948
0.00203746
0.00204782
0.00193799
0.00176898
0.00165806
0.00163678
0.00166279
0.0016853
0.00168643
0.00165138
0.00158635
0.00149908
0.00137615
0.00116969
0.000782696
0.000505254
0.000825404
0.00110374
0.00130614
0.0014599
0.00159454
0.00172179
0.00184406
0.00195975
0.0020656
0.00214789
0.00219848
0.00221045
0.00218299
0.00211199
0.00199247
0.00182872
0.00165448
0.00158773
0.0016822
0.00180598
0.00184567
0.0018184
0.00174982
0.00171483
0.00170891
0.00171399
0.00171016
0.0016868
0.00163992
0.00156872
0.00147699
0.00133868
0.00107097
0.000578503
0.00047948
0.000801261
0.00108073
0.001276
0.00142302
0.0015554
0.00168638
0.00181938
0.00195142
0.00207471
0.0021802
0.00225777
0.00229815
0.00229953
0.00225956
0.00217037
0.00201584
0.00178683
0.00154719
0.00147827
0.00150015
0.001592
0.00164489
0.00167476
0.00168613
0.00169995
0.00171135
0.00170901
0.00168147
0.00162799
0.00155248
0.0014526
0.00129327
0.000982604
0.000460555
0.000458471
0.000798102
0.00107924
0.00127307
0.00141728
0.00154604
0.00167487
0.00180966
0.00194991
0.00208829
0.00221277
0.00231017
0.00237027
0.00238652
0.00236385
0.00230263
0.00219951
0.00204015
0.00180549
0.00154954
0.00145491
0.00146472
0.00153433
0.00159299
0.001633
0.00166174
0.00167539
0.00167105
0.00164259
0.00159164
0.00152029
0.00142071
0.00125523
0.000937629
0.000433184
0.000399987
0.000767435
0.00105298
0.0012439
0.00138328
0.00150874
0.00163825
0.0017794
0.00193303
0.00209256
0.00224455
0.00237435
0.00247028
0.00252514
0.00253282
0.00249504
0.00241872
0.00229754
0.00212432
0.00188589
0.00161152
0.00144487
0.00143555
0.00149241
0.00155721
0.00160449
0.00163373
0.00163969
0.00161938
0.00157421
0.00150705
0.00141166
0.00125201
0.000941742
0.000455232
0.00038724
0.000764361
0.00105261
0.00124147
0.00137554
0.00149467
0.00161961
0.00176114
0.00192185
0.00209403
0.00226267
0.00241494
0.00253663
0.00262497
0.00267046
0.00266847
0.00261714
0.0025198
0.00238294
0.00219354
0.00194355
0.00165849
0.00145563
0.00142922
0.00147335
0.00154018
0.00158413
0.00160162
0.00159133
0.001553
0.00149157
0.00140204
0.00125363
0.000966412
0.000507304
0.000365306
0.000763835
0.00105126
0.00122814
0.00135354
0.00146658
0.00158892
0.00173347
0.00190346
0.00208647
0.0022672
0.0024354
0.00258862
0.00271057
0.00279347
0.00283872
0.00283882
0.00278573
0.00267346
0.00250061
0.00227072
0.00197632
0.00165914
0.00144763
0.00142849
0.00147158
0.00153715
0.00157108
0.00156934
0.0015399
0.00148168
0.00139647
0.00125478
0.000977207
0.000536515
0.000362866
0.000763801
0.0010517
0.00122569
0.00134449
0.00145062
0.00156603
0.00170554
0.00187105
0.00205706
0.00224935
0.00243197
0.00259364
0.00273183
0.00285155
0.00294399
0.00299841
0.00301083
0.00297182
0.00286368
0.00267959
0.00241618
0.00208795
0.00172586
0.00147589
0.00144218
0.00146605
0.00151525
0.00153624
0.00152519
0.00147729
0.00139973
0.00127135
0.00101971
0.000627633
0.000372018
0.000773191
0.00105371
0.00121778
0.00132903
0.00142779
0.00153411
0.00165948
0.00181159
0.00199084
0.00218478
0.00237608
0.00255338
0.00271394
0.00285535
0.00297824
0.00308524
0.00316388
0.00319337
0.00316741
0.00306321
0.0028746
0.00259654
0.00224211
0.00187122
0.00155319
0.00146778
0.00147475
0.00150434
0.00150466
0.00147467
0.00140648
0.00129368
0.00107684
0.000723631
0.000373716
0.000774301
0.00105171
0.00121151
0.00131904
0.00141158
0.00150559
0.00161147
0.00173901
0.00189415
0.00206824
0.00225164
0.00243602
0.00261497
0.00278579
0.00294633
0.00309237
0.00321868
0.00332179
0.00337315
0.00335343
0.00323951
0.00303365
0.00274376
0.00235768
0.00188642
0.00152609
0.00147382
0.00147856
0.00148614
0.00146635
0.00140687
0.00129705
0.00108776
0.000739505
0.000389566
0.000779123
0.00104404
0.00120106
0.00130819
0.00139781
0.00148165
0.00156856
0.0016702
0.00179476
0.00193857
0.00210181
0.00227873
0.00246147
0.00264715
0.00283686
0.0030299
0.00321935
0.00339017
0.00352094
0.00359055
0.00358116
0.0034913
0.00330431
0.003004
0.0025641
0.00200777
0.00153642
0.00148337
0.00147776
0.00146266
0.00141436
0.00132097
0.00112195
0.000813312
0.000421544
0.000781253
0.00103553
0.00119253
0.00130222
0.00139316
0.00147495
0.00155474
0.00163172
0.00171993
0.00182715
0.00195808
0.00211207
0.00228616
0.00247827
0.00269078
0.00292506
0.0031719
0.00340913
0.00361243
0.00375305
0.00382377
0.00382313
0.003748
0.00356242
0.00326518
0.00282911
0.00224919
0.0016782
0.0014844
0.00145613
0.00141511
0.00133785
0.00119556
0.00103423
0.000468296
0.000781952
0.0010249
0.00118166
0.00129337
0.00138743
0.00147276
0.00155198
0.00162802
0.00170067
0.00176664
0.00184473
0.00195901
0.00210872
0.00230263
0.00254378
0.00282812
0.00312758
0.00340453
0.00363042
0.00379897
0.00391646
0.00397664
0.00396875
0.0038842
0.00370919
0.00343268
0.00303057
0.00248893
0.00190443
0.0015644
0.00144225
0.00136873
0.00126273
0.00108333
0.000474753
0.000767921
0.00100595
0.00116439
0.00127812
0.00137353
0.00146077
0.00154428
0.00162449
0.0016989
0.00175985
0.0018087
0.00184887
0.00193329
0.00209745
0.00233293
0.00263813
0.00296945
0.00327468
0.00353207
0.0037374
0.00388203
0.00395762
0.00395873
0.00388327
0.00372415
0.00347835
0.00312289
0.00264421
0.00211224
0.00171899
0.00151702
0.00139855
0.00125632
0.00100584
0.000447
0.000733598
0.000980941
0.00114333
0.00125705
0.001353
0.00144414
0.00153476
0.00162384
0.00170402
0.00176584
0.00180447
0.0018313
0.00185974
0.00190984
0.00206369
0.00234984
0.00268488
0.0030126
0.00331624
0.0035567
0.00371231
0.00378601
0.00379388
0.00373062
0.00358592
0.00334237
0.00299267
0.00254703
0.00207937
0.00173061
0.00153738
0.00139529
0.00117084
0.00063292
0.000391558
0.000700577
0.000954087
0.00111975
0.00123258
0.00132516
0.00141505
0.00151234
0.00162183
0.00173742
0.00183766
0.00189741
0.00190535
0.00188474
0.00187811
0.00191301
0.0020086
0.00223911
0.00254367
0.00288182
0.00316989
0.00335697
0.00344676
0.00345517
0.00338184
0.00322101
0.00297565
0.00265943
0.00230379
0.00197152
0.00171903
0.00152658
0.00132079
0.000994936
0.000436782
0.000344772
0.000686125
0.000951927
0.00111739
0.00122709
0.00131458
0.00139896
0.00149334
0.00160901
0.0017486
0.00189235
0.00200649
0.00205712
0.00204451
0.00198236
0.00192698
0.00192591
0.00199587
0.00215652
0.00239218
0.00264329
0.00284301
0.00296493
0.00300531
0.00297447
0.00286254
0.00267709
0.00243573
0.00217086