/*--------------------------------*- C++ -*----------------------------------*\
| =========                 |                                                 |
| \\      /  F ield         | OpenFOAM: The Open Source CFD Toolbox           |
|  \\    /   O peration     | Version:  2.0.x                                 |
|   \\  /    A nd           | Web:      www.OpenFOAM.org                      |
|    \\/     M anipulation  |                                                 |
\*---------------------------------------------------------------------------*/
FoamFile
{
    version     2.0;
    format      ascii;
    class       volScalarField;
    location    "500";
    object      omega;
}
// * * * * * * * * * * * * * * * * * * * * * * * * * * * * * * * * * * * * * //

dimensions      [0 0 -1 0 0 0 0];

internalField   nonuniform List<scalar> 
78750
(
1021.98
6.55997
7.03861
7.19053
7.30684
7.45665
7.59316
7.70289
7.79874
7.88178
7.95307
8.01384
8.06543
8.10771
8.14138
8.1672
8.18647
8.19751
8.20659
8.20501
8.20481
8.20557
8.20347
8.19645
8.17824
8.15122
8.117
8.07552
8.02819
7.97679
7.9191
7.85036
7.76618
7.44652
1091.78
1021.84
5.70677
6.14467
6.48264
6.91294
7.31563
7.64461
7.92183
8.15274
8.34299
8.49909
8.62505
8.72473
8.80138
8.85742
8.89464
8.91542
8.91744
8.91174
8.89144
8.85393
8.79638
8.72487
8.64501
8.56226
8.47898
8.39767
8.31755
8.225
8.1284
8.02659
7.9088
7.75239
7.36326
1093.12
1021.4
5.0159
5.75443
6.49021
7.19139
7.7246
8.12188
8.41341
8.62823
8.78983
8.91184
9.00186
9.06535
9.10562
9.12453
9.12451
9.11188
9.08194
9.03688
8.97986
8.91154
8.83088
8.73898
8.63763
8.52913
8.41978
8.30302
8.17091
8.0555
7.95955
7.8811
7.79922
7.60997
7.25391
1093.62
1021.43
5.64126
6.73102
7.5379
8.06827
8.43885
8.68492
8.85903
8.99428
9.10355
9.19224
9.26252
9.31528
9.35074
9.36862
9.36909
9.35716
9.32533
9.27597
9.20945
9.1274
9.03144
8.92153
8.79647
8.6538
8.49722
8.33385
8.16096
7.9908
7.83915
7.71071
7.60383
7.43927
7.14959
1093.72
1021.48
5.79391
6.88734
7.64513
8.16412
8.52121
8.78664
8.99506
9.16231
9.29645
9.40189
9.48117
9.53615
9.56821
9.57828
9.57142
9.54273
9.495
9.42885
9.34505
9.24462
9.13021
9.00308
8.86182
8.70433
8.53693
8.36761
8.1878
8.00027
7.82075
7.65062
7.50069
7.32607
7.06952
1093.74
1021.7
6.19929
7.38101
8.14008
8.61147
8.92012
9.14405
9.31655
9.45216
9.55817
9.63855
9.69569
9.73119
9.74587
9.74299
9.7198
9.67726
9.61569
9.53563
9.43809
9.32478
9.19869
9.0613
8.91073
8.74529
8.56933
8.38964
8.19917
7.99684
7.79683
7.6005
7.42314
7.24541
7.02277
1093.82
1021.87
6.36445
7.52498
8.24307
8.69938
9.0146
9.25346
9.4405
9.58946
9.70665
9.7952
9.85708
9.89334
9.90473
9.89626
9.86339
9.80905
9.73461
9.64169
9.5322
9.40784
9.27104
9.12306
8.96134
8.78302
8.59494
8.4077
8.2176
8.01038
7.79106
7.57471
7.37626
7.18943
6.98756
1093.84
1022.15
6.68959
7.87909
8.58433
9.0071
9.29232
9.50302
9.66839
9.79983
9.90177
9.97535
10.0214
10.0411
10.0383
10.0124
9.96506
9.89725
9.81046
9.70579
9.58435
9.44788
9.29942
9.14015
8.96871
8.78496
8.59364
8.40009
8.1983
7.97603
7.74405
7.52179
7.32085
7.13657
6.95313
1093.84
1022.38
6.84666
7.9971
8.67731
9.09394
9.37739
9.59387
9.76775
9.90808
10.0176
10.0977
10.1492
10.1728
10.1705
10.1422
10.0899
10.0158
9.9217
9.8089
9.67756
9.52952
9.36959
9.19896
9.01585
8.82009
8.61511
8.40251
8.17739
7.93229
7.68651
7.46316
7.27122
7.09887
6.92659
1093.78
1022.64
7.08017
8.22118
8.87609
9.26652
9.53563
9.74284
9.90929
10.0419
10.1433
10.215
10.2579
10.2733
10.2644
10.2298
10.1721
10.0923
9.99153
9.87119
9.73432
9.58517
9.42626
9.25542
9.06922
8.86466
8.64124
8.39982
8.14003
7.86546
7.60443
7.3725
7.18901
7.03713
6.86744
1093.62
1022.81
7.14401
8.24516
8.89885
9.3001
9.58082
9.79791
9.97289
10.1126
10.2205
10.2984
10.3473
10.3673
10.3598
10.3238
10.261
10.1731
10.0625
9.93188
9.78528
9.62947
9.46918
9.30468
9.13133
8.94346
8.73641
8.50084
8.22476
7.92525
7.62958
7.35832
7.14466
6.98321
6.80035
1093.44
1022.86
7.18007
8.29684
8.96578
9.37396
9.65736
9.87599
10.0517
10.1921
10.3011
10.3808
10.4326
10.4573
10.4554
10.4273
10.3728
10.2926
10.1874
10.0583
9.90792
9.74252
9.56712
9.38843
9.20901
9.02341
8.824
8.59794
8.32773
8.01475
7.69233
7.37646
7.12169
6.93676
6.72618
1093.27
1022.86
7.17884
8.29844
8.97287
9.39244
9.68975
9.92106
10.1074
10.2574
10.3754
10.4639
10.5241
10.5566
10.5615
10.5408
10.4917
10.4157
10.3131
10.1845
10.0312
9.85794
9.66983
9.4715
9.26891
9.0666
8.85977
8.63496
8.37305
8.07013
7.74952
7.41722
7.12562
6.90324
6.67635
1093.26
1022.81
7.15627
8.3031
9.00867
9.44494
9.7506
9.98761
10.179
10.334
10.4578
10.5532
10.6223
10.666
10.6841
10.6769
10.6429
10.5807
10.4893
10.3679
10.2177
10.0421
9.84509
9.63146
9.40625
9.17375
8.93756
8.69148
8.42193
8.13083
7.82683
7.4965
7.17043
6.9135
6.67955
1093.32
1022.75
7.14477
8.30793
9.02921
9.48101
9.79896
10.0461
10.2462
10.4093
10.5407
10.6439
10.7216
10.7754
10.8057
10.8121
10.797
10.754
10.6813
10.5763
10.4377
10.267
10.0674
9.84174
9.59581
9.33381
9.05972
8.7719
8.47935
8.18872
7.8808
7.54994
7.22106
6.94821
6.70235
1093.44
1022.76
7.16971
8.36754
9.10782
9.56702
9.88792
10.1372
10.339
10.5031
10.6353
10.7392
10.8177
10.8731
10.9068
10.9189
10.9107
10.8767
10.8176
10.7323
10.6186
10.4744
10.2961
10.0813
9.83197
9.5582
9.2625
8.94636
8.62776
8.31163
7.97234
7.61174
7.26649
6.99223
6.75459
1093.59
1022.83
7.25369
8.46549
9.20209
9.65909
9.98037
10.2319
10.4359
10.6018
10.7349
10.8388
10.916
10.969
10.9996
11.009
11.001
10.9747
10.9307
10.8652
10.7731
10.6508
10.4932
10.2962
10.0565
9.77071
9.43939
9.08937
8.75501
8.41694
8.0524
7.67267
7.31516
7.04131
6.81584
1093.74
1022.95
7.36282
8.57852
9.30657
9.7566
10.0741
10.3241
10.5275
10.6933
10.8268
10.9311
11.0083
11.0605
11.0897
11.0985
11.092
11.0682
11.0278
10.9695
10.89
10.7859
10.6495
10.4751
10.2567
9.9893
9.67071
9.31869
8.95195
8.55282
8.13424
7.72794
7.36512
7.09741
6.88323
1093.86
1023.09
7.4725
8.68354
9.39811
9.83994
10.154
10.4028
10.6061
10.7729
10.908
11.0143
11.0929
11.1447
11.171
11.1737
11.1589
11.1247
11.0768
11.0169
10.9439
10.8524
10.7341
10.5821
10.3897
10.1517
9.86675
9.54604
9.19103
8.77185
8.2869
7.80461
7.41711
7.15267
6.9444
1093.92
1023.2
7.56839
8.77701
9.48124
9.91461
10.2232
10.4679
10.6689
10.8356
10.9731
11.0833
11.1664
11.222
11.25
11.251
11.2311
11.19
11.1357
11.0725
11.0018
10.9175
10.8115
10.6768
10.5075
10.2995
10.0558
9.77573
9.4354
9.00632
8.48765
7.93895
7.49072
7.21545
6.99922
1093.93
1023.28
7.647
8.85492
9.55119
9.97787
10.2818
10.5223
10.7206
10.8871
11.0272
11.1425
11.2327
11.2961
11.3299
11.3329
11.3097
11.2609
11.1958
11.1221
11.0456
10.9616
10.8637
10.7448
10.5985
10.4199
10.2078
9.95373
9.62917
9.20256
8.66643
8.07742
7.58066
7.27955
7.04362
1093.91
1023.32
7.70603
8.92207
9.61405
10.0337
10.3311
10.5655
10.7594
10.9242
11.0668
11.19
11.2932
11.3723
11.4219
11.4376
11.4205
11.3716
11.299
11.2123
11.1199
11.0231
10.9201
10.8062
10.6745
10.5207
10.3378
10.1063
9.79711
9.38033
8.8403
8.22686
7.68799
7.35424
7.08719
1093.9
1023.33
7.76327
8.99392
9.68218
10.094
10.3834
10.6097
10.7964
10.9568
11.0994
11.2291
11.3451
11.4428
11.5139
11.5508
11.5497
11.5122
11.4417
11.3473
11.2373
11.118
10.9951
10.87
10.7383
10.5947
10.4275
10.2132
9.92144
9.52028
8.98888
8.37018
7.80427
7.43969
7.13858
1093.91
1023.38
7.84277
9.08395
9.76352
10.164
10.4425
10.6582
10.8351
10.9879
11.1269
11.2601
11.3867
11.5036
11.5989
11.6616
11.6852
11.6702
11.6157
11.5281
11.4121
11.275
11.1267
10.9767
10.8307
10.6846
10.5195
10.3096
10.0266
9.63607
9.11359
8.49706
7.91753
7.53
7.20018
1093.97
1023.52
7.96383
9.1986
9.85825
10.2422
10.507
10.7104
10.8762
11.0202
11.1517
11.2812
11.4179
11.5528
11.6704
11.7559
11.8038
11.8098
11.7792
11.7087
11.6019
11.4637
11.3041
11.1369
10.9747
10.8173
10.6452
10.4341
10.1562
9.77469
9.25953
8.64071
8.04083
7.62822
7.27888
1094.12
1023.73
8.11025
9.31673
9.94667
10.3095
10.5583
10.7483
10.9018
11.0309
11.1548
11.2834
11.4221
11.5652
11.7015
11.8155
11.8893
11.9184
11.9082
11.8574
11.7662
11.6381
11.482
11.3119
11.1431
10.9776
10.7989
10.5856
10.3113
9.93863
9.43309
8.81063
8.18656
7.74603
7.3761
1094.26
1023.93
8.22495
9.4032
10.0101
10.3565
10.5929
10.7716
10.9128
11.0322
11.145
11.2665
11.4073
11.5592
11.7029
11.8241
11.9147
11.9716
11.9863
11.9583
11.8861
11.7739
11.6308
11.4704
11.3059
11.1388
10.9559
10.7396
10.4663
10.1014
9.60956
8.99111
8.35121
7.8838
7.48164
1094.34
1023.96
8.26131
9.44079
10.0444
10.3842
10.6123
10.7818
10.9137
11.0229
11.1212
11.2273
11.3545
11.5037
11.6605
11.8031
11.9161
11.9943
12.0319
12.026
11.9755
11.8829
11.7563
11.6084
11.4496
11.2793
11.0906
10.8707
10.5969
10.2362
9.7559
9.14876
8.51293
8.02688
7.58439
1094.36
1023.93
8.27666
9.47173
10.0792
10.4161
10.6377
10.7993
10.9224
11.0228
11.115
11.2185
11.3435
11.4898
11.6429
11.7868
11.9079
11.999
12.0537
12.067
12.0373
11.9636
11.8527
11.715
11.5594
11.386
11.1915
10.9659
10.6895
10.3327
9.86516
9.27822
8.66449
8.16831
7.68317
1094.38
1023.91
8.30471
9.51653
10.1269
10.4619
10.6768
10.827
10.9357
11.0227
11.11
11.2156
11.345
11.495
11.6515
11.7997
11.9268
12.0245
12.0866
12.1099
12.0927
12.0333
11.936
11.8082
11.6559
11.4792
11.276
11.0395
10.7544
10.3978
9.94166
9.37989
8.79696
8.29847
7.77486
1094.4
1023.95
8.36141
9.58238
10.189
10.5203
10.7307
10.8715
10.9656
11.036
11.1114
11.2218
11.3797
11.5669
11.743
11.9002
12.027
12.1186
12.1739
12.193
12.1758
12.1202
12.0296
11.9088
11.7591
11.5795
11.3682
11.1202
10.8243
10.464
10.0141
9.47276
8.91577
8.41993
7.87344
1094.5
1024.2
8.50497
9.69555
10.2748
10.5909
10.7913
10.9207
10.9944
11.0372
11.0922
11.206
11.391
11.6144
11.8422
12.0287
12.1681
12.2602
12.3092
12.3202
12.2978
12.2407
12.1515
12.0317
11.8794
11.6935
11.4725
11.2121
10.9037
10.5355
10.0863
9.55871
9.02281
8.53357
7.97464
1094.61
1024.69
8.70302
9.81526
10.3538
10.6539
10.8478
10.9683
11.024
11.0326
11.0461
11.1487
11.3504
11.6071
11.8505
12.0543
12.2111
12.3215
12.3906
12.4196
12.4083
12.3593
12.2763
12.1599
12.0076
11.818
11.5892
11.3178
10.9973
10.6167
10.1604
9.63738
9.11565
8.63138
8.05809
1094.63
1025.29
8.8322
9.86212
10.3836
10.6876
10.8884
11.0114
11.0583
11.0466
11.0223
11.0483
11.1871
11.4373
11.6988
11.9423
12.1413
12.288
12.3851
12.4365
12.4455
12.4168
12.3513
12.2473
12.1028
11.9162
11.6852
11.4075
11.0791
10.6889
10.2262
9.70651
9.19858
8.71474
8.11682
1094.59
1025.53
8.8426
9.8638
10.3849
10.6921
10.9052
11.0536
11.1122
11.1115
11.0664
11.037
11.0576
11.1219
11.2903
11.539
11.7913
12.0027
12.1691
12.2845
12.3476
12.3608
12.3292
12.2512
12.1298
11.9625
11.7457
11.475
11.1462
10.7505
10.2846
9.77093
9.27551
8.78881
8.15504
1094.44
1025.49
8.73178
9.77971
10.3326
10.6681
10.9047
11.0729
11.1941
11.2401
11.2266
11.1655
11.0892
11.0528
11.0477
11.1042
11.2216
11.4153
11.6446
11.8593
12.0143
12.1143
12.1582
12.1483
12.0739
11.9375
11.7387
11.4812
11.1701
10.7868
10.328
9.82449
9.33903
8.84502
8.16998
1094.29
1024.92
8.45328
9.58878
10.2117
10.5899
10.857
11.0554
11.202
11.3167
11.4029
11.4263
11.4014
11.3232
11.2191
11.1173
11.0486
11.0264
11.0676
11.1754
11.3537
11.5472
11.7185
11.8314
11.8633
11.8075
11.6697
11.4554
11.166
10.799
10.3608
9.87791
9.40791
8.91194
8.20923
1094.23
1023.96
8.06894
9.3194
10.0371
10.4695
10.7661
10.9922
11.1716
11.3164
11.4394
11.5575
11.6551
11.7022
11.702
11.6246
11.4808
11.2974
11.11
10.9586
10.8686
10.8674
10.9787
11.181
11.3737
11.4861
11.4836
11.3581
11.1249
10.7955
10.3835
9.91972
9.46185
8.97212
8.25857
1094.28
1023.11
7.65593
9.0096
9.8493
10.3647
10.7093
10.9613
11.1527
11.3046
11.4348
11.5612
11.6987
11.8456
11.9784
12.0631
12.0768
11.9999
11.8349
11.5938
11.3041
11.0129
10.8054
10.7462
10.7975
10.9325
11.0574
11.0939
11.0043
10.7567
10.3821
9.95567
9.52088
9.04961
8.35226
1094.56
1022.62
7.38959
8.8597
9.80023
10.3506
10.7056
10.961
11.1563
11.3152
11.4562
11.5981
11.7605
11.9506
12.1527
12.3335
12.4547
12.488
12.4464
12.3099
12.0777
11.7453
11.3529
11.0175
10.8212
10.7381
10.7538
10.8019
10.7898
10.6424
10.3602
9.97635
9.57157
9.13133
8.47808
1095.04
1022.55
7.3588
8.85284
9.82278
10.4287
10.8066
11.062
11.2491
11.3957
11.5296
11.6877
11.9076
12.1985
12.5217
12.8129
13.0198
13.1083
13.0888
12.9681
12.7433
12.404
11.9703
11.5345
11.1053
10.8074
10.6854
10.6483
10.6387
10.5507
10.3337
10.0058
9.63446
9.22188
8.62223
1095.68
1022.71
7.61011
9.20435
10.143
10.6813
11.0053
11.2196
11.3722
11.4891
11.6145
11.8229
12.171
12.6384
13.1361
13.5664
13.8686
14.0137
14.0051
13.8766
13.5996
13.1955
12.6834
12.1642
11.6369
11.1479
10.7915
10.648
10.567
10.4851
10.3132
10.0328
9.69549
9.31584
8.78126
1096.29
1023.33
8.14757
9.66749
10.4477
10.8682
11.1276
11.2974
11.4065
11.509
11.6841
12.0542
12.6457
13.3463
13.9939
14.469
14.76
14.9059
14.9109
14.8083
14.5405
14.0832
13.455
12.7816
12.1216
11.5171
11.05
10.7439
10.5867
10.4637
10.2878
10.0404
9.73859
9.39303
8.91002
1096.69
1024.53
8.77958
10.0508
10.6593
10.9882
11.186
11.3167
11.4074
11.4941
11.7031
12.2349
13.13
13.9784
14.5725
14.9735
15.2282
15.3432
15.3366
15.2076
14.9464
14.5378
13.9925
13.3471
12.5937
11.8083
11.1674
10.7787
10.5905
10.4619
10.2959
10.0645
9.78359
9.46401
9.01715
1096.73
1026
9.21649
10.2095
10.7178
11.0095
11.1923
11.2934
11.3227
11.3468
11.5802
12.2414
13.1795
14.0187
14.6076
15.0069
15.2725
15.425
15.4662
15.4003
15.2091
14.8896
14.4479
13.8793
13.169
12.3544
11.5824
11.0228
10.6915
10.5032
10.3306
10.1021
9.83613
9.52199
9.03889
1096.55
1026.52
9.24559
10.2177
10.7211
11.0106
11.1908
11.2837
11.2914
11.242
11.2174
11.5542
12.3819
13.2925
14.0351
14.5839
14.9827
15.2529
15.3954
15.413
15.3069
15.0792
14.7218
14.2085
13.533
12.7421
11.9569
11.3336
10.9242
10.6573
10.4276
10.1756
9.89855
9.55896
9.0172
1095.86
1026.57
9.22503
10.1591
10.6597
10.9695
11.1802
11.2927
11.3061
11.2342
11.1468
11.1154
11.3826
12.1465
13.0139
13.7343
14.2817
14.693
14.9821
15.1446
15.1753
15.0776
14.8321
14.4187
13.8331
13.1101
12.3552
11.7046
11.2284
10.8872
10.5996
10.3097
9.99712
9.60209
8.93831
1095.31
1026.81
9.15402
10.091
10.622
10.9534
11.1798
11.317
11.3495
11.2918
11.1723
11.115
11.1854
11.5594
12.2547
12.9544
13.5674
14.0522
14.4181
14.6686
14.8028
14.818
14.6839
14.3747
13.8912
13.2773
12.6067
11.9864
11.4835
11.0865
10.7413
10.4055
10.0572
9.60788
8.82361
1094.85
1026.78
9.01808
9.98489
10.5331
10.8866
11.1441
11.3195
11.391
11.374
11.279
11.1293
11.0658
11.0628
11.2067
11.7368
12.4538
13.0769
13.5975
13.9856
14.2513
14.3799
14.3705
14.1792
13.8142
13.3011
12.735
12.1874
11.713
11.3028
10.9252
10.5522
10.1518
9.61476
8.71078
1094.43
1025.94
8.67638
9.73739
10.3485
10.7465
11.0456
11.2726
11.4324
11.5193
11.5357
11.4327
11.258
11.0704
10.9622
10.9363
11.0203
11.4881
12.1529
12.76
13.2656
13.6488
13.8187
13.8072
13.6022
13.2477
12.7875
12.3216
11.862
11.4273
11.0158
10.6151
10.1888
9.61366
8.60411
1094.12
1024.72
8.30245
9.46905
10.139
10.5695
10.8959
11.1588
11.3646
11.521
11.6235
11.6753
11.643
11.5041
11.2781
11.0372
10.8736
10.8349
10.9415
11.3541
11.9043
12.4579
12.9285
13.1702
13.1921
13.0184
12.7143
12.3274
11.9381
11.5454
11.1467
10.7357
10.2748
9.64244
8.60805
1094.11
1024.05
8.04266
9.26938
10.0053
10.4748
10.8237
11.1088
11.3432
11.5125
11.6308
11.7081
11.7376
11.7313
11.6575
11.492
11.2424
10.973
10.8297
10.8258
11.0712
11.5408
12.0119
12.3712
12.5869
12.656
12.5524
12.3006
11.9465
11.5817
11.1971
10.787
10.3286
9.70329
8.64491
1094.21
1023.74
7.91778
9.17296
9.9414
10.4335
10.7996
11.0979
11.3434
11.5415
11.6914
11.7894
11.8303
11.8296
11.7925
11.7215
11.6005
11.4057
11.136
10.8696
10.7498
10.8759
11.256
11.6877
12.0139
12.1908
12.2056
12.0928
11.88
11.5747
11.2246
10.8396
10.4049
9.82027
8.83126
1094.72
1023.33
7.68053
8.99359
9.83111
10.3765
10.7741
11.0889
11.3524
11.5742
11.7536
11.8882
11.9741
12.0047
11.9843
11.9201
11.8215
11.6951
11.5313
11.3029
11.0134
10.7632
10.7493
10.9684
11.3869
11.7301
11.9134
11.9251
11.8153
11.5616
11.2417
10.8789
10.4665
9.91537
8.97377
1095.25
1023.24
7.65259
8.97101
9.81981
10.3709
10.7731
11.1027
11.383
11.6176
11.8079
11.9543
12.0563
12.1121
12.1211
12.0915
12.0137
11.8973
11.7516
11.5785
11.3853
11.1472
10.8578
10.7244
10.8026
11.1555
11.4853
11.6606
11.662
11.5419
11.2881
10.9616
10.5823
10.0943
9.28313
1096.33
1023.36
7.68588
9.01385
9.85956
10.4206
10.843
11.1923
11.4883
11.7374
11.9406
12.0979
12.2063
12.2619
12.2633
12.2251
12.1377
12.0171
11.8561
11.6916
11.5229
11.3573
11.1159
10.8431
10.7021
10.7397
11.05
11.3634
11.5205
11.5066
11.3177
11.0421
10.6873
10.2178
9.47188
1097.43
1023.86
7.92917
9.17655
9.96662
10.5034
10.9189
11.2714
11.5787
11.8431
12.0612
12.2285
12.3416
12.3974
12.3949
12.3342
12.214
12.0566
11.887
11.7646
11.7321
11.7448
11.6658
11.42
10.9825
10.7785
10.8546
11.0885
11.2972
11.3701
11.299
11.0798
10.7857
10.394
9.79315
1098.42
1024.48
8.13753
9.28008
10.0294
10.5582
10.9795
11.343
11.666
11.9476
12.1797
12.3564
12.4703
12.516
12.4955
12.3964
12.2189
11.969
11.7144
11.6737
11.8719
12.175
12.2273
12.0146
11.429
10.9134
10.8969
11.1062
11.2792
11.3307
11.2608
11.0731
10.7962
10.4219
9.83206
1098.33
1025.32
8.37012
9.41183
10.1072
10.6044
11.018
11.3915
11.7315
12.033
12.2778
12.4647
12.5773
12.6042
12.5454
12.3888
12.1407
11.7566
11.2734
11.2178
11.7526
12.1493
12.1799
11.8857
11.4256
11.1982
11.1476
11.2472
11.3329
11.34
11.2402
11.0503
10.7902
10.413
9.73931
1096.78
1025.45
8.39172
9.41805
10.1093
10.6073
11.021
11.3967
11.7456
12.0663
12.3525
12.5716
12.7062
12.7413
12.6758
12.4965
12.1829
11.7295
11.2123
10.9811
11.1816
11.5337
11.6556
11.5964
11.4233
11.3726
11.3711
11.4
11.401
11.343
11.2084
11.0001
10.7251
10.2945
9.41035
1095.26
1025.24
8.29502
9.35731
10.0228
10.4953
10.9052
11.2954
11.6777
12.0449
12.3781
12.6568
12.8587
12.9659
12.9729
12.876
12.6533
12.2558
11.6311
10.9032
10.6616
10.7005
10.975
11.1376
11.2329
11.285
11.3414
11.3895
11.3912
11.3177
11.168
10.9487
10.6496
10.1512
9.09941
1094.36
1025.07
8.27728
9.34249
10.0087
10.4772
10.8772
11.2621
11.6505
12.041
12.4145
12.7418
12.9934
13.1476
13.1917
13.139
12.9884
12.7287
12.3175
11.6842
10.9279
10.5983
10.6083
10.8239
11.0103
11.1417
11.2387
11.2895
11.2849
11.208
11.0627
10.8533
10.5527
10.0313
8.94142
1094.16
1024.59
8.17902
9.25892
9.91587
10.3724
10.7661
11.157
11.5672
11.9971
12.4279
12.825
13.1554
13.3957
13.533
13.5552
13.4675
13.2841
12.9852
12.5442
11.9109
11.1278
10.5787
10.5396
10.7131
10.9178
11.0694
11.1661
11.1924
11.1398
11.0116
10.8144
10.5259
10.0244
8.9592
1094.33
1024.48
8.14835
9.24961
9.90683
10.3479
10.7237
11.1032
11.5172
11.969
12.4349
12.8757
13.2606
13.5613
13.776
13.8867
13.8847
13.7657
13.5346
13.2018
12.7259
12.0649
11.254
10.6249
10.5322
10.6697
10.8812
11.0215
11.0806
11.0559
10.9466
10.7652
10.4931
10.0246
9.04208
1094.71
1024.3
8.14552
9.24618
9.86496
10.2797
10.6386
11.0135
11.4401
11.9221
12.4195
12.8911
13.3157
13.6911
13.9822
14.1767
14.2844
14.2882
14.17
13.9118
13.5025
12.9376
12.1706
11.2707
10.5988
10.5345
10.6671
10.8749
10.9866
10.9897
10.908
10.7361
10.4769
10.0292
9.08243
1094.96
1024.29
8.14848
9.25287
9.85871
10.2517
10.5904
10.9475
11.3647
11.8398
12.3499
12.8539
13.3134
13.7077
14.0362
14.3159
14.5269
14.6508
14.6825
14.6005
14.3617
13.941
13.313
12.488
11.4991
10.7242
10.5955
10.6641
10.8167
10.8875
10.8606
10.7214
10.487
10.0839
9.24097
1095.68
1024.38
8.21267
9.2657
9.83538
10.2035
10.5201
10.8524
11.2329
11.6787
12.1812
12.6995
13.1882
13.6228
14.0033
14.3295
14.6079
14.8474
15.0214
15.0885
15.0358
14.8109
14.39
13.7428
12.8674
11.8778
10.9442
10.6718
10.6958
10.7901
10.7977
10.7113
10.5044
10.1511
9.43462
1096.39
1024.41
8.2125
9.26146
9.81521
10.1707
10.4677
10.7623
11.0874
11.4689
11.9163
12.3969
12.879
13.3423
13.775
14.1747
14.5399
14.8649
15.1419
15.367
15.4825
15.4477
15.2105
14.764
14.1091
13.1767
11.9224
10.8508
10.6851
10.7122
10.7409
10.6848
10.5037
10.1627
9.46495
1096.49
1024.57
8.23659
9.23894
9.78243
10.1366
10.4242
10.6876
10.9573
11.265
11.6326
12.042
12.4873
12.9491
13.4054
13.8509
14.2907
14.725
15.1406
15.5087
15.7894
15.9427
15.9311
15.7653
15.3786
14.7314
13.7254
12.3194
10.8971
10.7004
10.7019
10.668
10.53
10.2423
9.59774
1097.17
1024.86
8.24549
9.20644
9.7519
10.1157
10.4072
10.6616
10.9
11.1352
11.4033
11.7189
12.0933
12.5135
12.9656
13.4427
13.9495
14.4877
15.0364
15.5485
15.9777
16.2722
16.4243
16.436
16.2994
15.9383
15.3344
14.4012
13.0451
11.4631
10.7767
10.6825
10.5313
10.2906
9.85153
1098.91
1025.25
8.24829
9.16582
9.71375
10.0865
10.3894
10.6559
10.8967
11.122
11.3329
11.5302
11.765
12.0884
12.4979
13.0018
13.5979
14.269
14.9446
15.5439
16.0168
16.3621
16.5998
16.7224
16.711
16.5532
16.2094
15.6535
14.8061
13.5685
12.0507
11.0145
10.6303
10.3997
10.0609
1099.22
1025.31
8.18766
9.09525
9.65318
10.0348
10.3439
10.6177
10.8718
11.1102
11.3273
11.5018
11.633
11.7615
12.0071
12.4578
13.0697
13.8214
14.5951
15.2716
15.818
16.242
16.5341
16.6842
16.6874
16.54
16.2168
15.7004
14.9249
13.8275
12.5129
11.4432
10.8524
10.49
10.0701
1098.43
1025.06
8.04049
9.00004
9.57804
9.96274
10.2758
10.5634
10.8403
11.1043
11.3365
11.5144
11.6319
11.7077
11.7923
11.9336
12.3523
13.0948
13.9178
14.6751
15.3418
15.8525
16.1722
16.3096
16.3218
16.1856
15.8807
15.3612
14.592
13.5633
12.4057
11.4654
10.9048
10.4613
9.68633
1095.49
1024.57
7.89244
8.89304
9.49121
9.87801
10.184
10.4709
10.7702
11.0947
11.4258
11.7057
11.8702
11.8949
11.844
11.832
11.9288
12.1835
12.7838
13.5357
14.3294
14.9806
15.3884
15.5775
15.5952
15.4389
15.0916
14.5486
13.8241
12.9707
12.1269
11.4377
10.8742
10.225
9.08734
1094.08
1024.17
7.82248
8.87449
9.47756
9.85486
10.1449
10.4158
10.7077
11.0519
11.4522
11.8531
12.1678
12.3109
12.2841
12.1231
11.9705
11.9658
12.1498
12.5676
13.1593
13.7715
14.2392
14.5153
14.6057
14.5366
14.2848
13.8595
13.2886
12.6363
11.989
11.4062
10.8375
10.0914
8.83612
1093.85
1023.93
7.81509
8.87378
9.47617
9.84333
10.1201
10.3836
10.6729
11.037
11.5143
12.0347
12.4884
12.7802
12.8611
12.7368
12.4576
12.1629
12.0258
12.0853
12.3712
12.8155
13.2748
13.6341
13.8319
13.8467
13.6823
13.3578
12.9184
12.4146
11.9008
11.386
10.834
10.0935
8.84457
1093.98
1023.95
7.83305
8.89072
9.48149
9.83912
10.1038
10.3401
10.6202
11.0143
11.5254
12.1474
12.7431
13.1852
13.4474
13.5095
13.372
13.0668
12.6781
12.3343
12.1623
12.1887
12.3797
12.6719
12.974
13.1815
13.218
13.0869
12.7811
12.3691
11.9018
11.4071
10.8801
10.1846
8.99226
1094.73
1024.5
8.12133
9.07475
9.5572
9.8601
10.1041
10.3328
10.6075
11.0176
11.5923
12.2814
12.9568
13.499
13.8494
14.0232
14.021
13.8772
13.6196
13.2987
12.9578
12.6551
12.4325
12.3383
12.3562
12.4582
12.6005
12.6542
12.5686
12.3121
11.9358
11.5019
11.0098
10.3605
9.26724
1095.6
1025.17
8.23488
9.0923
9.56312
9.85719
10.0787
10.2787
10.5225
10.9176
11.5288
12.2531
12.9573
13.5418
13.9646
14.2518
14.4253
14.4535
14.3589
14.1783
13.9292
13.6277
13.2831
12.8959
12.5649
12.3658
12.2451
12.2233
12.2236
12.1327
11.8988
11.5325
11.1
10.5353
9.60358
1096.51
1025.27
8.23106
9.08756
9.54055
9.81928
10.022
10.1739
10.3079
10.5165
10.9556
11.6634
12.4557
13.1985
13.7969
14.2276
14.5191
14.6953
14.7619
14.7314
14.6105
14.409
14.1324
13.7775
13.3474
12.8437
12.4093
12.1539
12.0031
11.9134
11.7697
11.5012
11.1182
10.6363
9.82889
1096.88
1025.01
8.05365
8.94577
9.44263
9.76653
10.0036
10.1679
10.2804
10.3562
10.4269
10.6766
11.3574
12.2267
13.0572
13.7229
14.2219
14.5811
14.8148
14.9369
14.9566
14.8797
14.7106
14.4471
14.0832
13.6139
13.0544
12.4471
12.0107
11.792
11.6221
11.403
11.0964
10.6788
9.95214
1096.93
1024.33
7.80745
8.78842
9.33926
9.69218
9.95513
10.1565
10.2869
10.3581
10.3901
10.4217
10.5114
11.0233
11.9225
12.8051
13.5218
14.0721
14.4848
14.7801
14.9561
15.0221
14.9845
14.8396
14.5833
14.2101
13.7101
13.0871
12.4195
11.8684
11.5793
11.327
11.0475
10.6788
9.98606
1096.85
1023.87
7.64721
8.66459
9.24964
9.63265
9.93164
10.1631
10.3368
10.4448
10.4796
10.4648
10.4508
10.5064
10.7893
11.6181
12.5186
13.2797
13.8892
14.366
14.7111
14.9142
14.9867
14.955
14.8126
14.5448
14.1428
13.5904
12.8972
12.1723
11.6164
11.2959
11.0058
10.6554
9.98166
1096.73
1023.69
7.56239
8.60383
9.21673
9.62379
9.93077
10.1789
10.3744
10.5155
10.5977
10.6136
10.5657
10.5006
10.5207
10.7471
11.5056
12.3991
13.1654
13.7897
14.2751
14.6165
14.8257
14.8957
14.8349
14.6637
14.364
13.9055
13.2707
12.5067
11.795
11.3048
10.9859
10.6247
9.93967
1096.62
1023.67
7.52059
8.57175
9.21068
9.63184
9.96107
10.2297
10.4424
10.5974
10.693
10.729
10.7065
10.632
10.5498
10.5946
10.9152
11.6827
12.5179
13.2395
13.8152
14.2434
14.5391
14.7083
14.7525
14.6587
14.4226
14.0476
13.4969
12.7718
12.0069
11.4035
10.9904
10.5972
9.88675
1096.55
1023.67
7.49281
8.5456
9.21127
9.66229
10.0155
10.3064
10.5397
10.7127
10.8224
10.867
10.8483
10.7726
10.6687
10.6153
10.7622
11.2625
12.0438
12.8056
13.4241
13.8945
14.2408
14.4682
14.5731
14.5482
14.3842
14.0501
13.5562
12.8997
12.1615
11.5249
11.0496
10.5978
9.83804
1096.45
1023.77
7.49251
8.5442
9.21941
9.69526
10.0721
10.3864
10.6409
10.834
10.9607
11.0167
11.0022
10.9212
10.7974
10.7004
10.7618
11.1114
11.7611
12.4868
13.1015
13.5809
13.9471
14.2065
14.3513
14.3708
14.2546
13.988
13.5409
12.9277
12.2451
11.6205
11.1123
10.6001
9.78037
1096.28
1023.82
7.48351
8.52676
9.21433
9.70968
10.1183
10.4652
10.7525
10.9725
11.1181
11.186
11.1767
11.0913
10.948
10.8066
10.7964
11.0422
11.5668
12.227
12.828
13.3095
13.6831
13.9566
14.1215
14.1648
14.0772
13.8434
13.4513
12.9149
12.295
11.7005
11.1724
10.6084
9.72712
1096.09
1023.82
7.4423
8.48863
9.19127
9.70702
10.1386
10.5163
10.8408
11.1021
11.2868
11.3826
11.3887
11.3086
11.1514
10.9578
10.8469
10.9409
11.3244
11.8812
12.457
12.9729
13.3846
13.6889
13.8814
13.9496
13.8894
13.6896
13.3466
12.8752
12.3247
11.7653
11.2266
10.6167
9.66357
1095.89
1023.72
7.36796
8.42295
9.14087
9.67858
10.1405
10.5499
10.9145
11.2234
11.4601
11.6077
11.6494
11.5897
11.4404
11.2194
10.9866
10.8928
11.0596
11.4995
12.029
12.5302
12.9785
13.3385
13.5814
13.694
13.6763
13.5204
13.2298
12.8199
12.3274
11.8062
11.2727
10.6399
9.64006
1095.77
1023.62
7.29665
8.35597
9.08402
9.63774
10.1212
10.568
10.976
11.3372
11.6343
11.8432
11.9435
11.9272
11.793
11.5708
11.2904
11.0278
10.9564
11.1923
11.6355
12.1131
12.5504
12.9256
13.2248
13.4022
13.4424
13.3434
13.11
12.7598
12.3255
11.8403
11.3174
10.6744
9.6449
1095.77
1023.55
7.23548
8.29265
9.0251
9.59254
10.0978
10.5753
11.0245
11.4333
11.7819
12.0491
12.2171
12.2686
12.1953
11.9894
11.6755
11.3238
11.0623
11.0567
11.3431
11.7608
12.1793
12.5497
12.854
13.0749
13.1788
13.144
12.9714
12.6788
12.2934
11.8431
11.3429
10.7036
9.66537
1095.79
1023.46
7.16391
8.21294
8.944
9.52002
10.043
10.5483
11.0373
11.4894
11.8838
12.2059
12.4378
12.5645
12.5723
12.4473
12.1792
11.7746
11.3616
11.1094
11.163
11.4611
11.8478
12.218
12.5274
12.7581
12.893
12.9157
12.8101
12.579
12.2477
11.8399
11.3623
10.7377
9.6968
1095.85
1023.39
7.10101
8.13412
8.8577
9.43745
9.97478
10.5033
11.0191
11.5032
11.9369
12.3011
12.5879
12.7861
12.8811
12.8611
12.7147
12.4213
11.9714
11.4709
11.1936
11.2513
11.531
11.8864
12.2129
12.4702
12.6375
12.6989
12.6501
12.4752
12.1946
11.8286
11.3841
10.7846
9.75848
1096.04
1023.35
7.04074
8.04889
8.75853
9.33817
9.88694
10.4344
10.9761
11.4888
11.953
12.356
12.6871
12.9323
13.086
13.1368
13.0792
12.8972
12.5689
12.0944
11.573
11.281
11.3318
11.5917
11.9093
12.1872
12.387
12.4883
12.4809
12.3622
12.1327
11.8124
11.4089
10.8451
9.85391
1096.34
1023.34
6.99105
7.96652
8.65715
9.23405
9.79197
10.3515
10.9092
11.4417
11.93
12.3606
12.7259
13.0305
13.2501
13.3664
13.3829
13.2934
13.0778
12.7233
12.2405
11.7031
11.3662
11.4272
11.6679
11.9513
12.1805
12.3165
12.3423
12.2646
12.074
11.7923
11.4264
10.9015
9.95095
1096.6
1023.34
6.93847
7.87406
8.5427
9.11589
9.6843
10.258
10.8242
11.3681
11.8706
12.3201
12.7125
13.0465
13.313
13.4885
13.5669
13.5486
13.4214
13.1734
12.7976
12.3016
11.7958
11.504
11.5584
11.7514
11.9766
12.1409
12.2062
12.1647
12.0107
11.7627
11.4275
10.9352
10.0172
1096.79
1023.33
6.88418
7.77665
8.42153
8.99051
9.56884
10.1561
10.7294
11.2765
11.7862
12.2474
12.6575
13.0173
13.3163
13.5293
13.6572
13.6932
13.6321
13.459
13.1636
12.7349
12.2272
11.8143
11.647
11.733
11.8793
12.0244
12.1005
12.0782
11.9502
11.7306
11.4259
10.9613
10.0681
1096.83
1023.31
6.82179
7.66886
8.28716
8.8493
9.43709
10.0408
10.6274
11.1765
11.6886
12.1572
12.5784
12.9537
13.275
13.5224
13.6795
13.7527
13.7351
13.6161
13.3817
13.0199
12.5567
12.1047
11.8278
11.7754
11.8776
11.9771
12.0338
12.0115
11.8967
11.696
11.4112
10.9631
10.0787
1096.82
1023.29
6.76393
7.56701
8.15535
8.70539
9.29913
9.9207
10.5265
11.0864
11.5954
12.0652
12.4918
12.8751
13.2103
13.4822
13.666
13.7658
13.7819
13.7044
13.5185
13.2147
12.8101
12.3813
12.0527
11.9028
11.9006
11.9651
11.9886
11.954
11.843
11.6555
11.3886
10.9597
10.076
1096.75
1023.25
6.6952
7.45945
8.01808
8.55182
9.14633
9.78386
10.4117
10.9906
11.5096
11.9763
12.4041
12.7916
13.1347
13.4212
13.6324
13.7582
13.8031
13.7629
13.6224
13.3741
13.0313
12.6481
12.3103
12.0908
11.999
11.9835
11.9819
11.9303
11.813
11.6271
11.3646
10.941
10.0607
1096.67
1023.2
6.63893
7.36902
7.89513
8.40515
8.99143
9.6394
10.2897
10.8931
11.4318
11.9087
12.3347
12.7243
13.0729
13.37
13.6014
13.7459
13.8109
13.799
13.6951
13.4929
13.2021
12.861
12.5274
12.263
12.1004
12.0257
11.985
11.9146
11.7918
11.6054
11.343
10.9157
10.019
1096.52
1023.14
6.57313
7.27928
7.77472
8.25389
8.81922
9.46735
10.1378
10.7706
11.3379
11.8362
12.2752
12.6689
13.0242
13.329
13.5705
13.7323
13.8112
13.816
13.7362
13.5707
13.3296
13.0402
12.7361
12.461
12.2514
12.1136
12.0153
11.9146
11.769
11.5748
11.3076
10.8703
9.95289
1096.34
1023.06
6.52264
7.21462
7.68046
8.12225
8.65166
9.28186
9.9614
10.6227
11.2225
11.7506
12.2136
12.6238
12.995
13.3139
13.5668
13.7456
13.836
13.8455
13.7718
13.6202
13.4048
13.1513
12.8819
12.6221
12.396
12.2155
12.0692
11.9245
11.7605
11.5533
11.2773
10.8278
9.88956
1096.2
1022.97
6.47096
7.15958
7.6033
8.00904
8.4934
9.08557
9.75556
10.4375
11.0734
11.6413
12.1417
12.5849
12.9829
13.3239
13.5982
13.801
13.9079
13.9208
13.8469
13.6957
13.488
13.2497
12.9919
12.7314
12.49
12.2843
12.1085
11.9402
11.7603
11.537
11.2488
10.7909
9.84596
1096.14
1022.88
6.44133
7.13342
7.56137
7.93607
8.37231
8.90377
9.5327
10.2114
10.8757
11.4872
12.0351
12.5244
12.961
13.3411
13.661
13.9023
14.0344
14.0564