/*--------------------------------*- C++ -*----------------------------------*\
| =========                 |                                                 |
| \\      /  F ield         | OpenFOAM: The Open Source CFD Toolbox           |
|  \\    /   O peration     | Version:  2.0.x                                 |
|   \\  /    A nd           | Web:      www.OpenFOAM.org                      |
|    \\/     M anipulation  |                                                 |
\*---------------------------------------------------------------------------*/
FoamFile
{
    version     2.0;
    format      ascii;
    class       surfaceScalarField;
    location    "500";
    object      phi;
}
// * * * * * * * * * * * * * * * * * * * * * * * * * * * * * * * * * * * * * //

dimensions      [1 0 -1 0 0 0 0];

internalField   nonuniform List<scalar> 
228225
(
-4.83813e-06
2.74395e-06
1.90194e-06
-1.09972e-05
2.94136e-06
3.2177e-06
-1.59147e-05
1.52147e-06
3.39606e-06
-1.86095e-05
-6.47066e-07
3.34178e-06
-1.87328e-05
-3.07909e-06
3.20245e-06
-1.68074e-05
-5.0002e-06
3.07478e-06
-1.35744e-05
-6.17712e-06
2.94416e-06
-9.45465e-06
-6.97582e-06
2.85604e-06
-4.75655e-06
-7.48735e-06
2.78927e-06
2.80587e-07
-7.78434e-06
2.74721e-06
5.47155e-06
-7.91771e-06
2.72676e-06
1.06761e-05
-7.92295e-06
2.71842e-06
1.58246e-05
-7.86361e-06
2.71511e-06
2.08028e-05
-7.69428e-06
2.71611e-06
2.55872e-05
-7.49372e-06
2.70934e-06
3.01026e-05
-7.2313e-06
2.71584e-06
3.42626e-05
-6.92021e-06
2.7602e-06
3.80329e-05
-6.55954e-06
2.78921e-06
4.13865e-05
-6.16089e-06
2.80731e-06
4.42746e-05
-5.7087e-06
2.82058e-06
4.66396e-05
-5.1959e-06
2.83086e-06
4.85426e-05
-4.74077e-06
2.83772e-06
4.97711e-05
-4.06911e-06
2.84057e-06
5.04544e-05
-3.52945e-06
2.84607e-06
5.0421e-05
-2.82744e-06
2.86087e-06
4.96793e-05
-2.12184e-06
2.86347e-06
4.81586e-05
-1.36256e-06
2.88317e-06
4.57902e-05
-5.3647e-07
2.90479e-06
4.22228e-05
6.34249e-07
2.93308e-06
3.78411e-05
1.42354e-06
2.95798e-06
3.23275e-05
2.51101e-06
3.00252e-06
2.55833e-05
3.70103e-06
3.04302e-06
1.74654e-05
4.99165e-06
3.12598e-06
8.13706e-06
6.22461e-06
3.10341e-06
6.15249e-06
1.98456e-06
3.68646e-08
1.43257e-06
1.27442e-06
-9.11062e-07
1.47539e-06
2.4138e-06
-1.44029e-06
-7.24168e-07
2.77474e-06
-8.60698e-07
-3.96037e-06
2.73358e-06
7.83227e-07
-7.25983e-06
2.53669e-06
3.14875e-06
-9.68678e-06
2.32096e-06
5.97895e-06
-1.10498e-05
2.04238e-06
8.95315e-06
-1.18565e-05
1.9064e-06
1.19617e-05
-1.22922e-05
1.79616e-06
1.49153e-05
-1.24686e-05
1.73065e-06
1.77782e-05
-1.24845e-05
1.70386e-06
2.04779e-05
-1.23138e-05
1.69108e-06
2.30007e-05
-1.20817e-05
1.69526e-06
2.53518e-05
-1.17583e-05
1.71279e-06
2.74813e-05
-1.1352e-05
1.72867e-06
2.93892e-05
-1.08816e-05
1.74237e-06
3.10859e-05
-1.03521e-05
1.7351e-06
3.25606e-05
-9.76666e-06
1.73241e-06
3.37918e-05
-9.12734e-06
1.73519e-06
3.477e-05
-8.43183e-06
1.74483e-06
3.54675e-05
-7.6563e-06
1.76282e-06
3.57514e-05
-6.80401e-06
1.77928e-06
3.57828e-05
-5.90803e-06
1.80744e-06
3.53525e-05
-4.94628e-06
1.84707e-06
3.45721e-05
-3.94545e-06
1.89826e-06
3.34779e-05
-2.97044e-06
1.94274e-06
3.20156e-05
-1.90795e-06
2.00747e-06
2.9914e-05
-5.22935e-07
2.08792e-06
2.7249e-05
1.11522e-06
2.18394e-06
2.42268e-05
2.16161e-06
2.28401e-06
2.04957e-05
3.84082e-06
2.40106e-06
1.57322e-05
5.94428e-06
2.52007e-06
9.87095e-06
8.22925e-06
2.62337e-06
3.82437e-06
9.75892e-06
2.51196e-06
8.4365e-06
1.54034e-06
7.82159e-07
-2.57183e-07
9.07541e-07
3.09533e-06
-2.51486e-06
1.67701e-06
6.49148e-06
-5.95356e-06
1.83318e-06
9.98244e-06
-9.20677e-06
1.7554e-06
1.2606e-05
-1.15565e-05
1.67307e-06
1.44204e-05
-1.2984e-05
1.48284e-06
1.58447e-05
-1.37792e-05
1.3051e-06
1.69572e-05
-1.41857e-05
1.21673e-06
1.78393e-05
-1.43559e-05
1.18158e-06
1.85618e-05
-1.43644e-05
1.1732e-06
1.91532e-05
-1.42832e-05
1.2073e-06
1.96908e-05
-1.4088e-05
1.23653e-06
2.01393e-05
-1.38073e-05
1.27717e-06
2.05264e-05
-1.34542e-05
1.30882e-06
2.08746e-05
-1.30315e-05
1.3313e-06
2.11988e-05
-1.25423e-05
1.33648e-06
2.14886e-05
-1.19892e-05
1.34725e-06
2.17336e-05
-1.13742e-05
1.36247e-06
2.19237e-05
-1.06992e-05
1.38173e-06
2.20517e-05
-9.96539e-06
1.40552e-06
2.21188e-05
-9.16116e-06
1.43772e-06
2.20498e-05
-8.22588e-06
1.4907e-06
2.18178e-05
-7.22724e-06
1.55114e-06
2.14033e-05
-6.1509e-06
1.61904e-06
2.07673e-05
-4.99543e-06
1.68588e-06
1.99038e-05
-3.85186e-06
1.74477e-06
1.88523e-05
-2.6794e-06
1.82273e-06
1.75298e-05
-1.12077e-06
1.92022e-06
1.61142e-05
5.21831e-07
2.00883e-06
1.44348e-05
1.73311e-06
2.10773e-06
1.21729e-05
3.8714e-06
2.23101e-06
9.13278e-06
6.65625e-06
2.32791e-06
5.36297e-06
9.62295e-06
2.37586e-06
1.86652e-06
1.1073e-05
2.18207e-06
9.05672e-06
1.24629e-06
3.06445e-07
-1.26479e-06
7.01097e-07
1.96958e-06
-5.35577e-06
1.17773e-06
4.17541e-06
-9.34082e-06
1.18139e-06
6.1876e-06
-1.22554e-05
1.03637e-06
7.86281e-06
-1.39942e-05
7.62456e-07
9.23549e-06
-1.4954e-05
5.9727e-07
1.02916e-05
-1.54876e-05
6.52364e-07
1.11853e-05
-1.57756e-05
6.96137e-07
1.19838e-05
-1.58968e-05
7.42401e-07
1.27471e-05
-1.58941e-05
7.66453e-07
1.34455e-05
-1.57868e-05
8.05103e-07
1.41093e-05
-1.55811e-05
8.29384e-07
1.4734e-05
-1.52857e-05
8.53681e-07
1.53044e-05
-1.49062e-05
8.81574e-07
1.5808e-05
-1.44468e-05
9.1169e-07
1.62329e-05
-1.3911e-05
9.43784e-07
1.65683e-05
-1.33017e-05
9.77031e-07
1.68037e-05
-1.26213e-05
1.01171e-06
1.6927e-05
-1.18713e-05
1.04878e-06
1.6926e-05
-1.10539e-05
1.08953e-06
1.6802e-05
-1.01725e-05
1.13536e-06
1.66125e-05
-9.22459e-06
1.18819e-06
1.63306e-05
-8.19608e-06
1.25063e-06
1.59285e-05
-7.07121e-06
1.32243e-06
1.53518e-05
-5.82787e-06
1.40913e-06
1.45555e-05
-4.56897e-06
1.51335e-06
1.36514e-05
-3.41134e-06
1.63603e-06
1.27877e-05
-2.03418e-06
1.77701e-06
1.16694e-05
-2.7989e-07
1.92004e-06
1.03663e-05
1.00039e-06
2.03573e-06
8.73594e-06
3.3509e-06
2.15085e-06
6.44086e-06
6.73434e-06
2.21695e-06
3.63854e-06
1.02403e-05
2.18492e-06
1.10094e-06
1.16858e-05
1.92471e-06
9.15416e-06
1.0035e-06
6.31277e-07
-2.31526e-06
4.19177e-07
2.27933e-06
-7.56745e-06
5.63628e-07
4.25716e-06
-1.17718e-05
4.5314e-07
6.14577e-06
-1.44681e-05
3.24162e-07
7.86521e-06
-1.59874e-05
2.73717e-07
9.44015e-06
-1.68187e-05
2.89773e-07
1.09092e-05
-1.72582e-05
3.01469e-07
1.22292e-05
-1.7448e-05
3.52415e-07
1.33939e-05
-1.74717e-05
4.10168e-07
1.44156e-05
-1.73723e-05
4.56589e-07
1.53046e-05
-1.71636e-05
4.87857e-07
1.60566e-05
-1.68602e-05
5.27095e-07
1.66879e-05
-1.64855e-05
5.68505e-07
1.71953e-05
-1.60258e-05
6.12134e-07
1.75803e-05
-1.54805e-05
6.48684e-07
1.78459e-05
-1.48566e-05
6.79976e-07
1.79923e-05
-1.41561e-05
7.08101e-07
1.80186e-05
-1.33832e-05
7.35575e-07
1.7921e-05
-1.25391e-05
7.65332e-07
1.76932e-05
-1.16264e-05
8.00337e-07
1.73283e-05
-1.06508e-05
8.43099e-07
1.6823e-05
-9.61497e-06
8.95594e-07
1.6187e-05
-8.51809e-06
9.58033e-07
1.54377e-05
-7.35288e-06
1.03095e-06
1.46037e-05
-6.11714e-06
1.12312e-06
1.36833e-05
-4.87961e-06
1.23104e-06
1.26959e-05
-3.78371e-06
1.35966e-06
1.16644e-05
-2.52125e-06
1.51855e-06
1.05609e-05
-8.76606e-07
1.70013e-06
9.25299e-06
4.57061e-07
1.85106e-06
7.79834e-06
2.7858e-06
2.01963e-06
5.76591e-06
6.65184e-06
2.11483e-06
3.31127e-06
1.0628e-05
2.06693e-06
1.07928e-06
1.21462e-05
1.77149e-06
9.32076e-06
9.12676e-07
6.62958e-07
-3.26284e-06
2.84736e-07
2.22786e-06
-9.46019e-06
3.27923e-07
4.07401e-06
-1.3848e-05
2.30096e-07
5.87299e-06
-1.64014e-05
1.34325e-07
7.52856e-06
-1.77062e-05
6.33516e-08
9.02722e-06
-1.83522e-05
3.48838e-08
1.03747e-05
-1.86518e-05
4.61741e-08
1.15764e-05
-1.87338e-05
8.41464e-08
1.26428e-05
-1.8683e-05
1.44913e-07
1.35639e-05
-1.85137e-05
2.20415e-07
1.43547e-05
-1.82367e-05
2.82276e-07
1.50225e-05
-1.78599e-05
3.3183e-07
1.55527e-05
-1.73836e-05
3.67998e-07
1.5952e-05
-1.68157e-05
3.90618e-07
1.62151e-05
-1.61644e-05
4.20808e-07
1.63445e-05
-1.54331e-05
4.47252e-07
1.63458e-05
-1.46296e-05
4.72112e-07
1.62271e-05
-1.37615e-05
4.97041e-07
1.60025e-05
-1.28388e-05
5.2421e-07
1.56893e-05
-1.18695e-05
5.56376e-07
1.53005e-05
-1.08566e-05
5.94704e-07
1.48444e-05
-9.7991e-06
6.40241e-07
1.43234e-05
-8.69243e-06
6.95483e-07
1.37393e-05
-7.52882e-06
7.60117e-07
1.30823e-05
-6.30739e-06
8.47329e-07
1.23255e-05
-5.08678e-06
9.64018e-07
1.14561e-05
-4.00295e-06
1.08875e-06
1.05267e-05
-2.82188e-06
1.23019e-06
9.56599e-06
-1.32138e-06
1.40565e-06
8.10074e-06
3.59865e-07
1.56263e-06
6.70813e-06
2.42706e-06
1.75158e-06
4.95019e-06
6.48609e-06
1.92388e-06
2.79448e-06
1.08644e-05
1.91951e-06
8.6421e-07
1.24564e-05
1.62038e-06
9.37982e-06
8.05157e-07
7.19486e-07
-4.11034e-06
1.28117e-07
2.22387e-06
-1.10339e-05
6.93681e-08
3.91929e-06
-1.5513e-05
-3.03255e-08
5.54929e-06
-1.79286e-05
-1.02718e-07
7.08097e-06
-1.91034e-05
-1.34464e-07
8.52504e-06
-1.96597e-05
-1.36531e-07
9.8752e-06
-1.98833e-05
-1.18672e-07
1.11311e-05
-1.98996e-05
-9.013e-08
1.22643e-05
-1.97645e-05
-5.16696e-08
1.32642e-05
-1.95046e-05
-9.00552e-09
1.41295e-05
-1.91398e-05
3.78054e-08
1.48482e-05
-1.86646e-05
8.60298e-08
1.54019e-05
-1.80713e-05
1.34029e-07
1.57951e-05
-1.73879e-05
1.78961e-07
1.60534e-05
-1.66325e-05
2.09791e-07
1.61755e-05
-1.57978e-05
2.42673e-07
1.61706e-05
-1.49012e-05
2.76592e-07
1.60474e-05
-1.39513e-05
3.13005e-07
1.58181e-05
-1.29577e-05
3.48313e-07
1.54952e-05
-1.19304e-05
3.8384e-07
1.50827e-05
-1.08669e-05
4.22877e-07
1.45826e-05
-9.76698e-06
4.68017e-07
1.39994e-05
-8.63129e-06
5.22074e-07
1.33462e-05
-7.45999e-06
5.8438e-07
1.26344e-05
-6.26029e-06
6.64799e-07
1.18695e-05
-5.08299e-06
7.61068e-07
1.10084e-05
-4.00946e-06
8.67676e-07
1.00757e-05
-2.87489e-06
9.85824e-07
9.08893e-06
-1.47139e-06
1.13682e-06
7.5919e-06
5.25509e-07
1.33146e-06
6.06448e-06
2.45129e-06
1.50328e-06
4.30531e-06
6.52238e-06
1.72297e-06
2.37475e-06
1.1045e-05
1.75005e-06
7.24587e-07
1.26467e-05
1.45992e-06
9.41667e-06
6.87743e-07
7.36882e-07
-4.91189e-06
6.47705e-08
2.15224e-06
-1.24561e-05
6.95299e-09
3.67878e-06
-1.69785e-05
-6.10185e-08
5.12228e-06
-1.92469e-05
-1.25237e-07
6.47245e-06
-2.02729e-05
-1.80629e-07
7.73433e-06
-2.07129e-05
-2.08634e-07
8.90269e-06
-2.08339e-05
-2.17715e-07
9.97096e-06
-2.07617e-05
-2.06144e-07
1.09108e-05
-2.05227e-05
-1.81593e-07
1.16988e-05
-2.01455e-05
-1.47059e-07
1.23143e-05
-1.96484e-05
-1.06828e-07
1.27672e-05
-1.90531e-05
-6.43748e-08
1.30933e-05
-1.83745e-05
-2.28507e-08
1.33082e-05
-1.76175e-05
1.47403e-08
1.34221e-05
-1.67921e-05
4.58191e-08
1.34656e-05
-1.5908e-05
6.67093e-08
1.34605e-05
-1.49765e-05
8.04621e-08
1.34148e-05
-1.39952e-05
8.96755e-08
1.33121e-05
-1.29611e-05
1.06262e-07
1.31304e-05
-1.18726e-05
1.23873e-07
1.28612e-05
-1.07423e-05
1.44723e-07
1.25059e-05
-9.58402e-06
1.72469e-07
1.20764e-05
-8.41152e-06
2.09802e-07
1.1596e-05
-7.23603e-06
2.56614e-07
1.10815e-05
-6.06751e-06
3.21777e-07
1.05224e-05
-4.9284e-06
4.04723e-07
9.84988e-06
-3.83981e-06
5.03004e-07
9.02335e-06
-2.66836e-06
6.2022e-07
7.99613e-06
-1.21276e-06
7.68861e-07
6.73441e-06
8.17504e-07
9.70022e-07
5.25287e-06
2.78492e-06
1.14827e-06
3.60968e-06
6.79264e-06
1.37325e-06
1.887e-06
1.1251e-05
1.51704e-06
5.20247e-07
1.27416e-05
1.2723e-06
9.34907e-06
5.87859e-07
6.73099e-07
-5.58889e-06
3.95918e-09
1.81869e-06
-1.35379e-05
-6.37458e-08
2.97858e-06
-1.80172e-05
-1.21129e-07
4.0626e-06
-2.01556e-05
-1.75239e-07
5.10621e-06
-2.10983e-05
-2.18193e-07
6.12419e-06
-2.14856e-05
-2.45243e-07
7.11052e-06
-2.1558e-05
-2.62205e-07
8.04512e-06
-2.14305e-05
-2.65796e-07
8.90377e-06
-2.11217e-05
-2.596e-07
9.67074e-06
-2.06682e-05
-2.44325e-07
1.03284e-05
-2.00845e-05
-2.2154e-07
1.08768e-05
-1.9408e-05
-1.93555e-07
1.13204e-05
-1.86554e-05
-1.62621e-07
1.16634e-05
-1.78294e-05
-1.31043e-07
1.19043e-05
-1.69314e-05
-1.01652e-07
1.20586e-05
-1.5987e-05
-7.52808e-08
1.21143e-05
-1.498e-05
-5.22812e-08
1.20659e-05
-1.3912e-05
-3.47856e-08
1.19134e-05
-1.27797e-05
-2.88689e-08
1.1649e-05
-1.15865e-05
-2.17399e-08
1.1278e-05
-1.03605e-05
-1.07886e-08
1.08235e-05
-9.13612e-06
6.723e-09
1.03184e-05
-7.93807e-06
3.16607e-08
9.79954e-06
-6.7804e-06
6.3295e-08
9.28835e-06
-5.66594e-06
1.09696e-07
8.77319e-06
-4.58428e-06
1.71121e-07
8.18296e-06
-3.49729e-06
2.47799e-07
7.45107e-06
-2.28118e-06
3.44838e-07
6.53013e-06
-7.66651e-07
4.7499e-07
5.62164e-06
1.0594e-06
6.6678e-07
4.33367e-06
3.1876e-06
8.85482e-07
2.79819e-06
7.17277e-06
1.15552e-06
1.33544e-06
1.1426e-05
1.28786e-06
2.56306e-07
1.27435e-05
1.0774e-06
9.14018e-06
4.65196e-07
5.20543e-07
-6.11323e-06
3.84541e-09
1.30789e-06
-1.42888e-05
-3.64862e-08
2.03168e-06
-1.86672e-05
-7.38133e-08
2.69449e-06
-2.06928e-05
-1.25612e-07
3.34141e-06
-2.1567e-05
-1.78195e-07
3.98316e-06
-2.19046e-05
-2.22758e-07
4.61706e-06
-2.19346e-05
-2.57322e-07
5.22213e-06
-2.17575e-05
-2.7802e-07
5.78603e-06
-2.13981e-05
-2.87463e-07
6.30271e-06
-2.08978e-05
-2.87072e-07
6.77715e-06
-2.02804e-05
-2.78566e-07
7.194e-06
-1.95617e-05
-2.63127e-07
7.53846e-06
-1.87578e-05
-2.42054e-07
7.81323e-06
-1.78866e-05
-2.17635e-07
8.02444e-06
-1.69446e-05
-1.9799e-07
8.15253e-06
-1.59329e-05
-1.82184e-07
8.19634e-06
-1.48545e-05
-1.69222e-07
8.15137e-06
-1.37078e-05
-1.59175e-07
8.01605e-06
-1.24927e-05
-1.51656e-07
7.79565e-06
-1.12171e-05
-1.48959e-07
7.50539e-06
-9.92199e-06
-1.48235e-07
7.17205e-06
-8.65841e-06
-1.44329e-07
6.82709e-06
-7.45953e-06
-1.33524e-07
6.49071e-06
-6.32793e-06
-1.16042e-07
6.17032e-06
-5.26103e-06
-8.44605e-08
5.86009e-06
-4.23607e-06
-3.78932e-08
5.52481e-06
-3.18891e-06
2.70165e-08
5.11537e-06
-1.98993e-06
1.18316e-07
4.59064e-06
-4.91992e-07
2.50215e-07
4.10908e-06
1.13071e-06
4.10426e-07
3.20461e-06
3.47744e-06
6.14825e-07
1.98913e-06
7.49513e-06
8.9327e-07
8.45151e-07
1.15e-05
1.07018e-06
3.25871e-08
1.26461e-05
9.10154e-07
8.80773e-06
3.65049e-07
2.32426e-07
-6.34443e-06
-1.18446e-09
5.06037e-07
-1.45232e-05
-3.9172e-08
7.42834e-07
-1.88327e-05
-7.1201e-08
9.99003e-07
-2.08454e-05
-1.03536e-07
1.32124e-06
-2.17477e-05
-1.41531e-07
1.69096e-06
-2.20979e-05
-1.76414e-07
2.10614e-06
-2.21396e-05
-2.10139e-07
2.54613e-06
-2.19601e-05
-2.37424e-07
3.00166e-06
-2.15968e-05
-2.56817e-07
3.4556e-06
-2.10835e-05
-2.68232e-07
3.88775e-06
-2.0441e-05
-2.71573e-07
4.27819e-06
-1.96847e-05
-2.67394e-07
4.60917e-06
-1.88321e-05
-2.56637e-07
4.86607e-06
-1.79038e-05
-2.39618e-07
5.05136e-06
-1.69146e-05
-2.15277e-07
5.17258e-06
-1.58616e-05
-1.92502e-07
5.23749e-06
-1.47468e-05
-1.72682e-07
5.25948e-06
-1.35722e-05
-1.57562e-07
5.25031e-06
-1.2335e-05
-1.48489e-07
5.21402e-06
-1.10348e-05
-1.45937e-07
5.14623e-06
-9.70571e-06
-1.48476e-07
5.04045e-06
-8.39876e-06
-1.53855e-07
4.89098e-06
-7.15207e-06
-1.57958e-07
4.72184e-06
-6.00184e-06
-1.56919e-07
4.54612e-06
-4.94243e-06
-1.42837e-07
4.37011e-06
-3.94353e-06
-1.16489e-07
4.20062e-06
-2.94171e-06
-7.76528e-08
4.0303e-06
-1.79972e-06
-1.98161e-08
3.83682e-06
-3.65882e-07
6.74779e-08
3.5081e-06
1.27274e-06
1.86817e-07
2.71025e-06
3.90576e-06
3.69677e-07
1.62679e-06
7.92866e-06
6.50051e-07
6.66218e-07
1.16308e-05
8.29898e-07
1.09919e-08
1.25656e-05
7.35889e-07
8.54102e-06
2.77692e-07
4.05862e-08
-6.39796e-06
1.29528e-08
7.79083e-08
-1.45407e-05
-1.97543e-08
1.366e-07
-1.88438e-05
-4.75864e-08
2.18244e-07
-2.08606e-05
-6.64625e-08
3.3902e-07
-2.17733e-05
-9.52153e-08
5.21131e-07
-2.216e-05
-1.2005e-07
7.63208e-07
-2.22325e-05
-1.49184e-07
1.05501e-06
-2.20755e-05
-1.76433e-07
1.38685e-06
-2.17297e-05
-1.99003e-07
1.74622e-06
-2.12268e-05
-2.16084e-07
2.12117e-06
-2.05884e-05
-2.27495e-07
2.50161e-06
-1.98319e-05
-2.33247e-07
2.87507e-06
-1.89718e-05
-2.33833e-07
3.22208e-06
-1.80209e-05
-2.29933e-07
3.52188e-06
-1.69949e-05
-2.19556e-07
3.76993e-06
-1.59047e-05
-2.0498e-07
3.9715e-06
-1.47588e-05
-1.8953e-07
4.13499e-06
-1.35608e-05
-1.74932e-07
4.27073e-06
-1.23081e-05
-1.62636e-07
4.38682e-06
-1.09971e-05
-1.53788e-07
4.4809e-06
-9.65169e-06
-1.4814e-07
4.53984e-06
-8.30974e-06
-1.48e-07
4.54677e-06
-7.00882e-06
-1.50216e-07
4.50557e-06
-5.80088e-06
-1.59794e-07
4.42783e-06
-4.70755e-06
-1.57175e-07
4.31151e-06
-3.68641e-06
-1.40823e-07
4.14764e-06
-2.66872e-06
-1.09157e-07
3.92053e-06
-1.51531e-06
-5.73457e-08
3.61474e-06
-7.87813e-08
1.86194e-08
3.2018e-06
1.56233e-06
1.23274e-07
2.41608e-06
4.39869e-06
2.92701e-07
1.46898e-06
8.35162e-06
5.24068e-07
6.53357e-07
1.17697e-05
6.76537e-07
9.74902e-08
1.25505e-05
5.70851e-07
8.41923e-06
2.19283e-07
-8.75755e-08
-6.32118e-06
1.08118e-08
-1.43305e-07
-1.44415e-05
-4.3545e-08
-1.17541e-07
-1.87889e-05
-8.07493e-08
-4.33828e-08
-2.08473e-05
-8.74792e-08
5.41671e-08
-2.17844e-05
-8.64239e-08
2.00596e-07
-2.22141e-05
-9.23247e-08
3.9986e-07
-2.23234e-05
-1.08382e-07
6.52407e-07
-2.21998e-05
-1.2825e-07
9.5669e-07
-2.18863e-05
-1.47684e-07
1.30696e-06
-2.14128e-05
-1.64244e-07
1.69465e-06
-2.07995e-05
-1.76626e-07
2.10707e-06
-2.00611e-05
-1.8331e-07
2.52852e-06
-1.92097e-05
-1.83573e-07
2.94198e-06
-1.82564e-05
-1.78024e-07
3.3292e-06
-1.72138e-05
-1.68327e-07
3.67671e-06
-1.60963e-05
-1.55876e-07
3.97778e-06
-1.49178e-05
-1.42168e-07
4.23301e-06
-1.36873e-05
-1.28734e-07
4.45034e-06
-1.24086e-05
-1.16833e-07
4.64497e-06
-1.10845e-05
-1.07324e-07
4.82235e-06
-9.72836e-06
-1.00729e-07
4.97722e-06
-8.36864e-06
-9.59925e-08
5.09714e-06
-7.03465e-06
-9.4108e-08
5.14392e-06
-5.75615e-06
-9.1521e-08
5.09812e-06
-4.5652e-06
-9.65664e-08
4.95666e-06
-3.45154e-06
-9.3412e-08
4.71019e-06
-2.34463e-06
-7.7631e-08
4.34373e-06
-1.10226e-06
-4.65985e-08
3.84707e-06
4.13213e-07
4.65837e-09
3.27452e-06
2.05227e-06
8.26059e-08
2.55892e-06
4.8956e-06
2.18683e-07
1.75808e-06
8.74012e-06
4.12329e-07
9.63111e-07
1.20026e-05
5.62052e-07
2.8947e-07
1.27177e-05
5.06429e-07
8.5008e-06
2.07898e-07
-1.23049e-07
-6.19205e-06
-6.09609e-09
-1.7569e-07
-1.42951e-05
-9.37262e-08
-1.06616e-07
-1.87166e-05
-1.41366e-07
2.95083e-08
-2.08547e-05
-1.2876e-07
2.1146e-07
-2.1857e-05
-1.09375e-07
4.2658e-07
-2.2323e-05
-1.06222e-07
6.81822e-07
-2.2468e-05
-1.1068e-07
9.86661e-07
-2.23832e-05
-1.21468e-07
1.34417e-06
-2.21087e-05
-1.35134e-07
1.75199e-06
-2.16721e-05
-1.48562e-07
2.20442e-06
-2.10918e-05
-1.60168e-07
2.69198e-06
-2.03803e-05
-1.68382e-07
3.20171e-06
-1.9548e-05
-1.71419e-07
3.7187e-06
-1.86053e-05
-1.6812e-07
4.22614e-06
-1.75628e-05
-1.5845e-07
4.70613e-06
-1.64328e-05
-1.43594e-07
5.14382e-06
-1.523e-05
-1.25528e-07
5.52291e-06
-1.39615e-05
-1.04977e-07
5.83585e-06
-1.26378e-05
-8.37881e-08
6.08515e-06
-1.12686e-05
-6.52509e-08
6.27383e-06
-9.86941e-06
-4.76776e-08
6.40415e-06
-8.46411e-06
-3.49121e-08
6.47276e-06
-7.07315e-06
-3.018e-08
6.47359e-06
-5.7221e-06
-3.49609e-08
6.37181e-06
-4.42518e-06
-3.83219e-08
6.14389e-06
-3.18668e-06
-3.7041e-08
5.76281e-06
-1.93412e-06
-2.95456e-08
5.23226e-06
-5.57565e-07
-1.42795e-08
4.74176e-06
8.91883e-07
1.16591e-08
3.99943e-06
2.73513e-06
5.92671e-08
3.11383e-06
5.62631e-06
1.54682e-07
2.1512e-06
9.39108e-06
3.11507e-07
1.21858e-06
1.24802e-05
4.54896e-07
4.0531e-07
1.30984e-05
4.32317e-07
8.71253e-06
1.93568e-07
-1.89037e-08
-6.13909e-06
-3.41134e-08
1.29261e-07
-1.43015e-05
-1.41791e-07
4.49773e-07
-1.88367e-05
-2.00466e-07
8.6663e-07
-2.10719e-05
-1.9962e-07
1.31328e-06
-2.21262e-05
-1.77521e-07
1.76251e-06
-2.26156e-05
-1.56626e-07
2.22186e-06
-2.27821e-05
-1.45219e-07
2.70164e-06
-2.27196e-05
-1.43424e-07
3.20388e-06
-2.24624e-05
-1.48593e-07
3.72633e-06
-2.2037e-05
-1.57528e-07
4.26396e-06
-2.14614e-05
-1.68086e-07
4.81037e-06
-2.07479e-05
-1.78754e-07
5.35596e-06
-1.99063e-05
-1.87293e-07
5.88842e-06
-1.89462e-05
-1.9154e-07
6.39459e-06
-1.7879e-05
-1.90026e-07
6.85411e-06
-1.67097e-05
-1.82607e-07
7.2511e-06
-1.54538e-05
-1.73241e-07
7.57072e-06
-1.41306e-05
-1.50525e-07
7.80616e-06
-1.27539e-05
-1.19372e-07
7.94807e-06
-1.13287e-05
-8.1791e-08
8.00883e-06
-9.88307e-06
-4.7142e-08
7.99665e-06
-8.43334e-06
-1.86377e-08
7.91246e-06
-6.99134e-06
2.33136e-09
7.74813e-06
-5.57385e-06
1.60359e-08
7.48462e-06
-4.19073e-06
2.90117e-08
7.09361e-06
-2.83188e-06
3.61381e-08
6.55146e-06
-1.4321e-06
4.00647e-08
5.89085e-06
5.95672e-08
4.33872e-08
5.31481e-06
1.41006e-06
5.77532e-08
4.44493e-06
3.5249e-06
7.99664e-08
3.40312e-06
6.53663e-06
1.31347e-07
2.29517e-06
1.02623e-05
2.3656e-07
1.28967e-06
1.31356e-05
3.49967e-07
4.35138e-07
1.36057e-05
3.47058e-07
8.98499e-06
1.62679e-07
1.65309e-07
-6.23803e-06
-6.64374e-08
6.4529e-07
-1.45814e-05
-2.00155e-07
1.31487e-06
-1.92384e-05
-2.67912e-07
2.03968e-06
-2.15248e-05
-2.71913e-07
2.74741e-06
-2.2587e-05
-2.46933e-07
3.41904e-06
-2.30703e-05
-2.1699e-07
4.05439e-06
-2.32235e-05
-1.93992e-07
4.66352e-06
-2.31478e-05
-1.80941e-07
5.25117e-06
-2.28724e-05
-1.77608e-07
5.82026e-06
-2.24243e-05
-1.81879e-07
6.37072e-06
-2.182e-05
-1.91829e-07
6.90047e-06
-2.10717e-05
-2.05989e-07
7.40256e-06
-2.01863e-05
-2.22156e-07
7.86764e-06
-1.91736e-05
-2.37694e-07
8.27744e-06
-1.80385e-05
-2.50341e-07
8.62266e-06
-1.68019e-05
-2.5304e-07
8.88007e-06
-1.54776e-05
-2.33574e-07
9.05136e-06
-1.40918e-05
-2.10069e-07
9.13337e-06
-1.2654e-05
-1.81968e-07
9.12329e-06
-1.11672e-05
-1.51544e-07
9.01548e-06
-9.65792e-06
-1.17365e-07
8.8211e-06
-8.15936e-06
-7.963e-08
8.55152e-06
-6.68046e-06
-4.13364e-08
8.20944e-06
-5.22419e-06
-7.62397e-09
7.7776e-06
-3.77967e-06
2.07431e-08
7.21864e-06
-2.31551e-06
4.2541e-08
6.53434e-06
-8.05849e-07
5.80017e-08
5.91597e-06
6.1005e-07
6.7831e-08
5.14762e-06
2.09756e-06
8.07836e-08
4.24199e-06
4.33407e-06
9.63947e-08
3.20289e-06
7.44768e-06
1.27998e-07
2.11699e-06
1.11517e-05
1.96516e-07
1.15238e-06
1.38265e-05
2.73593e-07
3.51074e-07
1.41374e-05
2.69516e-07
9.21376e-06
1.22302e-07
3.14646e-07
-6.45569e-06
-9.70176e-08
9.96492e-07
-1.50323e-05
-2.3098e-07
1.80358e-06
-1.9752e-05
-2.93446e-07
2.61737e-06
-2.20353e-05
-3.03319e-07
3.40093e-06
-2.30836e-05
-2.86979e-07
4.14114e-06
-2.35488e-05
-2.61655e-07
4.83381e-06
-2.36789e-05
-2.37273e-07
5.48115e-06
-2.35771e-05
-2.17993e-07
6.08174e-06
-2.32669e-05
-2.06076e-07
6.63652e-06
-2.27775e-05
-2.01515e-07
7.14651e-06
-2.2126e-05
-2.04037e-07
7.61301e-06
-2.13251e-05
-2.1311e-07
8.02686e-06
-2.03727e-05
-2.27395e-07
8.38353e-06
-1.92855e-05
-2.44861e-07
8.68442e-06
-1.80813e-05
-2.58047e-07
8.92367e-06
-1.67746e-05
-2.66597e-07
9.09698e-06
-1.53749e-05
-2.76025e-07
9.18688e-06
-1.39003e-05
-2.81436e-07
9.17967e-06
-1.23689e-05
-2.77891e-07
9.06554e-06
-1.07904e-05
-2.62657e-07
8.84268e-06
-9.19929e-06
-2.35788e-07
8.53184e-06
-7.64914e-06
-1.99402e-07
8.15507e-06
-6.14652e-06
-1.57195e-07
7.72435e-06
-4.67966e-06
-1.13835e-07
7.23446e-06
-3.21902e-06
-7.07898e-08
6.67161e-06
-1.72191e-06
-3.08008e-08
6.05028e-06
-1.88602e-07
4.03521e-09
5.50639e-06
1.11999e-06
3.38894e-08
4.72964e-06
2.81459e-06
5.96263e-08
3.82727e-06
5.15276e-06
8.35766e-08
2.84322e-06
8.31706e-06
1.14563e-07
1.85509e-06
1.19722e-05
1.67561e-07
9.81911e-07
1.4478e-05
2.21698e-07
2.633e-07
1.46452e-05
2.10716e-07
9.39559e-06
8.14698e-08
3.79279e-07
-6.72727e-06
-1.07665e-07
1.08321e-06
-1.55041e-05
-2.32092e-07
1.86017e-06
-2.0236e-05
-2.92912e-07
2.62107e-06
-2.24848e-05
-3.11398e-07
3.34747e-06
-2.35037e-05
-3.06208e-07
4.03276e-06
-2.39436e-05
-2.9048e-07
4.67195e-06
-2.40463e-05
-2.71759e-07
5.26238e-06
-2.39135e-05
-2.54012e-07
5.80023e-06
-2.35643e-05
-2.40504e-07
6.2846e-06
-2.30297e-05
-2.32164e-07
6.71113e-06
-2.23223e-05
-2.30155e-07
7.07065e-06
-2.14494e-05
-2.35169e-07
7.38306e-06
-2.04393e-05
-2.4577e-07
7.65385e-06
-1.92962e-05
-2.60011e-07
7.88032e-06
-1.80284e-05
-2.79349e-07
8.05073e-06
-1.66406e-05
-3.04376e-07
8.15274e-06
-1.51482e-05
-3.28696e-07
8.17582e-06
-1.35753e-05
-3.48024e-07
8.11258e-06
-1.19466e-05
-3.59004e-07
7.95938e-06
-1.02785e-05
-3.58633e-07
7.71065e-06
-8.60524e-06
-3.4527e-07
7.38265e-06
-7.00143e-06
-3.19653e-07
6.99266e-06
-5.47255e-06
-2.83928e-07
6.55502e-06
-4.00016e-06
-2.41796e-07
6.0852e-06
-2.55443e-06
-1.94714e-07
5.61241e-06
-1.10375e-06
-1.45291e-07
5.15711e-06
3.62967e-07
-9.61816e-08
4.64544e-06
1.68465e-06
-5.28827e-08
3.99582e-06
3.4753e-06
-1.09496e-08
3.23094e-06
5.88789e-06
2.99034e-08
2.37058e-06
9.10423e-06
7.33411e-08
1.49889e-06
1.27165e-05
1.27535e-07
7.3872e-07
1.50642e-05
1.74078e-07
1.35981e-07
1.50882e-05
1.59931e-07
9.48651e-06
4.50715e-08
3.54828e-07
-6.96732e-06
-1.14618e-07
9.81712e-07
-1.58961e-05
-2.34772e-07
1.65996e-06
-2.06203e-05
-2.93874e-07
2.3222e-06
-2.28306e-05
-3.16342e-07
2.9587e-06
-2.38206e-05
-3.19583e-07
3.56538e-06
-2.42366e-05
-3.1364e-07
4.13569e-06
-2.43135e-05
-3.03039e-07
4.66212e-06
-2.41494e-05
-2.90542e-07
5.13755e-06
-2.37606e-05
-2.79076e-07
5.55707e-06
-2.31793e-05
-2.69845e-07
5.90943e-06
-2.24101e-05
-2.64539e-07
6.20484e-06
-2.148e-05
-2.64758e-07
6.44269e-06
-2.0407e-05
-2.7015e-07
6.62292e-06
-1.91944e-05
-2.81962e-07
6.73855e-06
-1.78438e-05
-3.0015e-07
6.78906e-06
-1.63682e-05
-3.22763e-07
6.77667e-06
-1.47878e-05
-3.47955e-07
6.70287e-06
-1.31285e-05
-3.7298e-07
6.56943e-06
-1.14189e-05
-3.9422e-07
6.38067e-06
-9.68204e-06
-4.07644e-07
6.13331e-06
-7.94806e-06
-4.09763e-07
5.83768e-06
-6.30615e-06
-3.99586e-07
5.50828e-06
-4.76567e-06
-3.77418e-07
5.16135e-06
-3.30765e-06
-3.45522e-07
4.81574e-06
-1.90396e-06
-3.04803e-07
4.49115e-06
-5.21422e-07
-2.57672e-07
4.24568e-06
8.14254e-07
-2.05771e-07
3.85532e-06
2.2321e-06
-1.57041e-07
3.35099e-06
4.08463e-06
-1.04929e-07
2.71273e-06
6.57622e-06
-4.99939e-08
1.94942e-06
9.86001e-06
7.60602e-09
1.16519e-06
1.34319e-05
6.88899e-08
5.17483e-07
1.55974e-05
1.14632e-07
4.21967e-08
1.54606e-05
1.03015e-07
9.52123e-06
7.48528e-09
2.94942e-07
-7.15353e-06
-1.08463e-07
7.98673e-07
-1.61833e-05
-2.16397e-07
1.34873e-06
-2.09004e-05
-2.6985e-07
1.89352e-06
-2.3083e-05
-2.92287e-07
2.42558e-06
-2.40512e-05
-3.01413e-07
2.94105e-06
-2.44472e-05
-3.04838e-07
3.43181e-06
-2.44997e-05
-3.04482e-07
3.88599e-06
-2.43023e-05
-3.01161e-07
4.28979e-06
-2.38675e-05
-2.96814e-07
4.6302e-06
-2.32278e-05
-2.91858e-07
4.91598e-06
-2.24057e-05
-2.90072e-07
5.14137e-06
-2.14169e-05
-2.8847e-07
5.28974e-06
-2.02647e-05
-2.9054e-07
5.35493e-06
-1.89625e-05
-2.97009e-07
5.34897e-06
-1.75292e-05
-3.08606e-07
5.2899e-06
-1.59833e-05
-3.25766e-07
5.19334e-06
-1.4343e-05
-3.48075e-07
5.06858e-06
-1.26297e-05
-3.73899e-07
4.91975e-06
-1.08697e-05
-4.00183e-07
4.7509e-06
-9.09033e-06
-4.22707e-07
4.56382e-06
-7.32398e-06
-4.36836e-07
4.35467e-06
-5.65656e-06
-4.40276e-07
4.13171e-06
-4.11075e-06
-4.31798e-07
3.91069e-06
-2.674e-06
-4.12451e-07
3.70871e-06
-1.31909e-06
-3.82711e-07
3.52869e-06
2.58525e-09
-3.43807e-07
3.39506e-06
1.24961e-06
-3.01505e-07
3.11028e-06
2.76961e-06
-2.52453e-07
2.69147e-06
4.69982e-06
-1.96051e-07
2.12176e-06
7.27913e-06
-1.32834e-07
1.42987e-06
1.0617e-05
-6.47809e-08
7.54092e-07
1.41047e-05
3.21266e-09
2.60819e-07
1.60414e-05
4.96014e-08
-4.88824e-08
1.57266e-05
4.41515e-08
9.49402e-06
-2.16594e-08
2.07223e-07
-7.25829e-06
-1.02137e-07
5.87937e-07
-1.63587e-05
-2.0513e-07
1.03299e-06
-2.10904e-05
-2.54904e-07
1.48599e-06
-2.32641e-05
-2.71823e-07
1.93422e-06
-2.42203e-05
-2.78985e-07
2.37407e-06
-2.46024e-05
-2.84553e-07
2.79894e-06
-2.46351e-05
-2.89449e-07
3.19824e-06
-2.44083e-05
-2.93213e-07
3.55895e-06
-2.39313e-05
-2.96812e-07
3.86218e-06
-2.32308e-05
-3.00116e-07
4.09196e-06
-2.23363e-05
-2.99067e-07
4.22453e-06
-2.12512e-05
-2.98094e-07
4.25711e-06
-1.99995e-05
-2.97708e-07
4.20552e-06
-1.86117e-05
-2.99156e-07
4.09596e-06
-1.71155e-05
-3.04007e-07
3.95739e-06
-1.55307e-05
-3.13873e-07
3.8143e-06
-1.38699e-05
-3.29882e-07
3.68102e-06
-1.21442e-05
-3.52041e-07
3.56067e-06
-1.03706e-05
-3.78674e-07
3.45077e-06
-8.57406e-06
-4.06227e-07
3.34797e-06
-6.79122e-06
-4.29812e-07
3.23331e-06
-5.0963e-06
-4.45448e-07
3.10532e-06
-3.5321e-06
-4.50517e-07
2.97367e-06
-2.09742e-06
-4.44783e-07
2.85461e-06
-7.7169e-07
-4.28194e-07
2.77732e-06
4.81028e-07
-4.01009e-07
2.62651e-06
1.76678e-06
-3.66209e-07
2.39263e-06
3.32506e-06
-3.2138e-07
2.04566e-06
5.31271e-06
-2.65689e-07
1.56428e-06
7.96e-06
-1.99244e-07
9.8695e-07
1.13199e-05
-1.25295e-07
4.56739e-07
1.46884e-05
-5.32981e-08
1.07445e-07
1.6398e-05
-7.08904e-09
-8.28036e-08
1.5924e-05
-6.7783e-09
9.45711e-06
-4.58732e-08
1.32071e-07
-7.29347e-06
-9.65847e-08
4.58554e-07
-1.6487e-05
-1.98013e-07
8.91655e-07
-2.12779e-05
-2.45542e-07
1.34415e-06
-2.3458e-05
-2.58451e-07
1.7868e-06
-2.44006e-05
-2.62289e-07
2.21385e-06
-2.47626e-05
-2.66739e-07
2.62081e-06
-2.47686e-05
-2.7341e-07
3.00081e-06
-2.45068e-05
-2.81372e-07
3.3384e-06
-2.39781e-05
-2.907e-07
3.61311e-06
-2.32058e-05
-2.99613e-07
3.78811e-06
-2.2204e-05
-3.07204e-07
3.85223e-06
-2.10024e-05
-3.12837e-07
3.81181e-06
-1.96432e-05
-3.15752e-07
3.68988e-06
-1.81736e-05
-3.16032e-07
3.5205e-06
-1.66309e-05
-3.15024e-07
3.33968e-06
-1.50346e-05
-3.1518e-07
3.17734e-06
-1.33881e-05
-3.19312e-07
3.05145e-06
-1.16884e-05
-3.29712e-07
2.9652e-06
-9.93676e-06
-3.47357e-07
2.90948e-06
-8.14714e-06
-3.70982e-07
2.86758e-06
-6.35213e-06
-3.96947e-07
2.81139e-06
-4.61941e-06
-4.20453e-07
2.73009e-06
-3.01348e-06
-4.37071e-07
2.62808e-06
-1.5508e-06
-4.44354e-07
2.52014e-06
-2.22583e-07
-4.40912e-07
2.43979e-06
9.87934e-07
-4.26271e-07
2.27784e-06
2.32988e-06
-4.00826e-07
2.04053e-06
3.92596e-06
-3.63184e-07
1.70808e-06
5.95798e-06
-3.12329e-07
1.26953e-06
8.64683e-06
-2.47748e-07
7.73227e-07
1.19891e-05
-1.72435e-07
3.55149e-07
1.5206e-05
-9.91483e-08
9.50027e-08
1.67106e-05
-5.19414e-08
-4.83928e-08
1.61108e-05
-4.27072e-08
9.46427e-06
-5.55328e-08
1.54089e-07
-7.35026e-06
-9.70378e-08
5.80053e-07
-1.67203e-05
-1.92525e-07
1.14938e-06
-2.16118e-05
-2.35307e-07
1.73884e-06
-2.38011e-05
-2.46353e-07
2.30295e-06
-2.47168e-05
-2.47812e-07
2.83082e-06
-2.50402e-05
-2.5018e-07
3.32058e-06
-2.50016e-05
-2.56657e-07
3.75579e-06
-2.46749e-05
-2.67079e-07
4.12519e-06
-2.40649e-05
-2.82504e-07
4.39401e-06
-2.31733e-05
-3.01225e-07
4.54652e-06
-2.20357e-05
-3.20767e-07
4.57415e-06
-2.06917e-05
-3.38203e-07
4.48634e-06
-1.92052e-05
-3.50092e-07
4.31208e-06
-1.76449e-05
-3.54317e-07
4.08993e-06
-1.60575e-05
-3.5117e-07
3.85733e-06
-1.44586e-05
-3.43241e-07
3.64459e-06
-1.28408e-05
-3.34422e-07
3.47159e-06
-1.11864e-05
-3.28841e-07
3.34489e-06
-9.4799e-06
-3.29985e-07
3.25646e-06
-7.71881e-06
-3.39711e-07
3.18435e-06
-5.92241e-06
-3.57421e-07
3.09343e-06
-4.14851e-06
-3.79766e-07
2.95891e-06
-2.47713e-06
-4.01627e-07
2.78725e-06
-9.60741e-07