/*--------------------------------*- C++ -*----------------------------------*\
| =========                 |                                                 |
| \\      /  F ield         | OpenFOAM: The Open Source CFD Toolbox           |
|  \\    /   O peration     | Version:  2.0.x                                 |
|   \\  /    A nd           | Web:      www.OpenFOAM.org                      |
|    \\/     M anipulation  |                                                 |
\*---------------------------------------------------------------------------*/
FoamFile
{
    version     2.0;
    format      ascii;
    class       volScalarField;
    location    "500";
    object      T;
}
// * * * * * * * * * * * * * * * * * * * * * * * * * * * * * * * * * * * * * //

dimensions      [0 0 0 1 0 0 0];

internalField   nonuniform List<scalar> 
78750
(
288.8
289.592
289.883
289.963
289.994
290.056
290.137
290.218
290.296
290.369
290.434
290.494
290.552
290.607
290.66
290.711
290.761
290.807
290.851
290.893
290.931
290.967
290.998
291.026
291.05
291.069
291.083
291.09
291.092
291.093
291.094
291.101
291.238
292.705
300.259
288.54
289.033
289.253
289.393
289.587
289.785
289.954
290.101
290.235
290.361
290.486
290.609
290.727
290.84
290.949
291.053
291.149
291.239
291.322
291.399
291.47
291.533
291.587
291.635
291.674
291.704
291.722
291.723
291.707
291.657
291.577
291.537
291.744
293.808
300.866
288.334
288.666
288.961
289.273
289.572
289.841
290.07
290.265
290.437
290.594
290.736
290.867
290.986
291.094
291.193
291.284
291.371
291.452
291.529
291.599
291.664
291.725
291.782
291.833
291.877
291.912
291.938
291.953
291.952
291.934
291.925
292.015
292.928
295.523
301.682
288.402
288.871
289.296
289.656
289.938
290.155
290.33
290.477
290.605
290.721
290.829
290.931
291.03
291.125
291.218
291.307
291.393
291.475
291.552
291.625
291.693
291.755
291.813
291.867
291.917
291.961
291.998
292.027
292.048
292.073
292.158
292.564
293.977
296.853
302.548
288.409
288.899
289.329
289.687
289.965
290.18
290.355
290.506
290.642
290.77
290.889
291.003
291.11
291.211
291.306
291.396
291.48
291.558
291.632
291.701
291.766
291.827
291.884
291.938
291.99
292.036
292.077
292.115
292.154
292.215
292.382
292.98
294.681
297.687
303.089
288.45
289.016
289.503
289.884
290.159
290.364
290.532
290.681
290.815
290.938
291.053
291.16
291.261
291.356
291.445
291.53
291.609
291.684
291.753
291.817
291.875
291.927
291.975
292.018
292.06
292.099
292.139
292.183
292.243
292.351
292.614
293.385
295.282
298.358
303.514
288.463
289.055
289.557
289.946
290.232
290.451
290.632
290.79
290.934
291.067
291.191
291.307
291.417
291.521
291.619
291.71
291.794
291.87
291.939
291.999
292.051
292.096
292.134
292.167
292.196
292.224
292.253
292.291
292.357
292.498
292.846
293.769
295.839
298.921
303.805
288.5
289.157
289.703
290.107
290.391
290.608
290.791
290.956
291.107
291.247
291.377
291.5
291.615
291.723
291.824
291.917
292.001
292.077
292.144
292.201
292.249
292.288
292.318
292.342
292.361
292.378
292.399
292.434
292.504
292.668
293.082
294.133
296.341
299.414
304.057
288.517
289.199
289.756
290.167
290.457
290.681
290.873
291.046
291.205
291.354
291.493
291.624
291.746
291.86
291.967
292.064
292.151
292.229
292.297
292.356
292.404
292.442
292.47
292.491
292.507
292.524
292.547
292.588
292.677
292.881
293.371
294.545
296.84
299.865
304.29
288.547
289.271
289.845
290.245
290.53
290.755
290.95
291.127
291.291
291.446
291.592
291.73
291.86
291.98
292.093
292.196
292.291
292.375
292.448
292.507
292.556
292.593
292.619
292.638
292.655
292.676
292.709
292.769
292.889
293.136
293.696
294.964
297.267
300.24
304.521
288.557
289.286
289.851
290.25
290.534
290.758
290.953
291.131
291.296
291.451
291.597
291.735
291.866
291.991
292.108
292.219
292.324
292.424
292.516
292.596
292.658
292.703
292.737
292.764
292.79
292.821
292.869
292.951
293.102
293.397
294.028
295.363
297.653
300.574
304.728
288.56
289.288
289.851
290.249
290.533
290.757
290.952
291.13
291.295
291.45
291.597
291.736
291.867
291.991
292.108
292.22
292.325
292.424
292.519
292.609
292.694
292.77
292.829
292.874
292.917
292.964
293.029
293.136
293.325
293.69
294.442
295.889
298.128
300.952
304.963
288.558
289.277
289.829
290.219
290.499
290.724
290.921
291.1
291.267
291.423
291.572
291.712
291.846
291.972
292.093
292.207
292.315
292.418
292.515
292.607
292.694
292.779
292.861
292.938
293.007
293.074
293.155
293.273
293.472
293.846
294.617
296.094
298.327
301.118
305.055
288.545
289.243
289.783
290.167
290.443
290.663
290.856
291.033
291.198
291.353
291.5
291.64
291.773
291.901
292.023
292.14
292.252
292.361
292.467
292.57
292.669
292.764
292.857
292.949
293.043
293.143
293.256
293.402
293.622
294.005
294.763
296.211
298.405
301.18
305.105
288.534
289.219
289.759
290.149
290.426
290.645
290.835
291.009
291.171
291.325
291.471
291.61
291.742
291.867
291.987
292.1
292.207
292.31
292.411
292.509
292.609
292.711
292.815
292.921
293.03
293.147
293.288
293.472
293.735
294.18
295.008
296.477
298.605
301.31
305.179
288.532
289.216
289.758
290.149
290.428
290.647
290.838
291.013
291.177
291.332
291.48
291.622
291.757
291.885
292.006
292.119
292.225
292.324
292.417
292.507
292.597
292.69
292.786
292.889
293
293.128
293.284
293.489
293.787
294.301
295.235
296.789
298.878
301.498
305.28
288.533
289.227
289.78
290.179
290.463
290.686
290.88
291.058
291.226
291.386
291.539
291.687
291.829
291.965
292.093
292.211
292.319
292.416
292.503
292.583
292.66
292.736
292.816
292.904
293.006
293.132
293.29
293.495
293.806
294.362
295.361
296.983
299.06
301.631
305.356
288.545
289.26
289.827
290.231
290.519
290.746
290.945
291.127
291.299
291.465
291.624
291.779
291.929
292.073
292.209
292.336
292.451
292.554
292.642
292.719
292.787
292.852
292.918
292.992
293.082
293.195
293.341
293.541
293.859
294.432
295.456
297.101
299.156
301.697
305.407
288.558
289.291
289.864
290.268
290.555
290.784
290.984
291.169
291.344
291.513
291.677
291.837
291.993
292.145
292.29
292.429
292.556
292.671
292.77
292.854
292.925
292.988
293.05
293.119
293.201
293.308
293.447
293.644
293.964
294.544
295.578
297.23
299.248
301.751
305.45
288.569
289.316
289.892
290.293
290.576
290.802
291.001
291.185
291.361
291.531
291.697
291.86
292.02
292.177
292.331
292.479
292.618
292.746
292.859
292.956
293.038
293.11
293.177
293.248
293.331
293.436
293.575
293.783
294.131
294.744
295.814
297.48
299.435
301.858
305.512
288.582
289.348
289.931
290.331
290.611
290.834
291.031
291.215
291.39
291.561
291.728
291.892
292.054
292.213
292.368
292.519
292.664
292.8
292.924
293.034
293.129
293.213
293.29
293.368
293.457
293.567
293.715
293.939
294.313
294.965
296.078
297.757
299.638
301.968
305.572
288.593
289.373
289.964
290.368
290.649
290.873
291.072
291.257
291.434
291.607
291.776
291.941
292.102
292.258
292.409
292.555
292.698
292.835
292.965
293.086
293.196
293.294
293.385
293.476
293.573
293.691
293.852
294.097
294.497
295.18
296.318
297.988
299.79
302.032
305.606
288.599
289.393
289.996
290.406
290.69
290.916
291.117
291.305
291.487
291.663
291.835
292
292.156
292.303
292.442
292.577
292.709
292.841
292.971
293.1
293.225
293.342
293.453
293.56
293.672
293.802
293.979
294.246
294.679
295.403
296.576
298.234
299.966
302.122
305.644
288.61
289.428
290.053
290.476
290.768
291
291.208
291.404
291.594
291.78
291.957
292.12
292.267
292.399
292.519
292.634
292.748
292.865
292.984
293.109
293.236
293.365
293.493
293.616
293.741
293.883
294.073
294.352
294.803
295.553
296.75
298.402
300.063
302.146
305.646
288.627
289.479
290.132
290.575
290.882
291.129
291.352
291.565
291.773
291.975
292.164
292.33
292.468
292.581
292.675
292.761
292.848
292.938
293.037
293.146
293.265
293.394
293.527
293.661
293.798
293.952
294.148
294.426
294.867
295.603
296.784
298.407
300.035
302.106
305.628
288.648
289.534
290.206
290.661
290.981
291.244
291.484
291.717
291.946
292.17
292.381
292.56
292.697
292.8
292.877
292.942
293.004
293.071
293.148
293.238
293.342
293.461
293.592
293.73
293.876
294.041
294.246
294.526
294.953
295.658
296.805
298.408
300.033
302.077
305.617
288.666
289.567
290.234
290.681
290.999
291.264
291.507
291.743
291.978
292.216
292.45
292.669
292.846
292.965
293.049
293.112
293.168
293.225
293.289
293.366
293.457
293.565
293.687
293.823
293.975
294.156
294.382
294.683
295.124
295.822
296.926
298.441
300.034
302.075
305.619
288.669
289.568
290.235
290.682
290.999
291.263
291.507
291.743
291.979
292.216
292.451
292.674
292.873
293.032
293.145
293.228
293.294
293.355
293.418
293.489
293.574
293.674
293.791
293.928
294.092
294.294
294.551
294.894
295.385
296.126
297.233
298.676
300.144
302.105
305.638
288.666
289.56
290.22
290.664
290.982
291.247
291.491
291.729
291.965
292.204
292.442
292.67
292.874
293.052
293.191
293.297
293.381
293.454
293.523
293.596
293.679
293.777
293.893
294.034
294.208
294.429
294.72
295.115
295.674
296.481
297.608
298.981
300.37
302.254
305.691
288.654
289.532
290.188
290.626
290.94
291.203
291.45
291.69
291.931
292.176
292.42
292.654
292.87
293.062
293.219
293.344
293.445
293.53
293.608
293.687
293.773
293.871
293.986
294.126
294.304
294.536
294.849
295.283
295.899
296.764
297.909
299.224
300.555
302.394
305.743
288.651
289.532
290.191
290.629
290.941
291.205
291.454
291.7
291.953
292.209
292.459
292.692
292.904
293.091
293.251
293.385
293.495
293.59
293.677
293.764
293.855
293.957
294.073
294.214
294.391
294.625
294.943
295.391
296.031
296.923
298.073
299.35
300.647
302.462
305.765
288.662
289.573
290.251
290.693
291.01
291.283
291.55
291.824
292.108
292.389
292.647
292.867
293.05
293.204
293.339
293.457
293.561
293.656
293.746
293.836
293.932
294.036
294.156
294.301
294.481
294.715
295.032
295.478
296.118
297.012
298.155
299.404
300.683
302.493
305.777
288.708
289.691
290.402
290.854
291.181
291.476
291.776
292.09
292.412
292.719
292.977
293.167
293.301
293.405
293.496
293.582
293.666
293.749
293.834
293.923
294.02
294.127
294.251
294.401
294.588
294.828
295.149
295.597
296.232
297.115
298.234
299.445
300.704
302.513
305.79
288.77
289.836
290.577
291.039
291.384
291.707
292.04
292.389
292.739
293.055
293.3
293.463
293.56
293.623
293.679
293.737
293.8
293.869
293.946
294.031
294.126
294.235
294.365
294.522
294.719
294.971
295.307
295.766
296.405
297.275
298.356
299.509
300.737
302.551
305.81
288.806
289.895
290.632
291.099
291.455
291.79
292.133
292.481
292.815
293.113
293.36
293.551
293.692
293.79
293.851
293.897
293.946
294.004
294.073
294.152
294.244
294.355
294.49
294.656
294.865
295.136
295.493
295.975
296.63
297.495
298.537
299.625
300.814
302.618
305.84
288.81
289.893
290.617
291.077
291.433
291.769
292.101
292.427
292.737
293.026
293.284
293.505
293.683
293.822
293.931
294.018
294.088
294.148
294.21
294.282
294.37
294.479
294.617
294.79
295.01
295.298
295.678
296.184
296.857
297.719
298.723
299.757
300.911
302.701
305.87
288.779
289.781
290.452
290.898
291.239
291.544
291.833
292.113
292.39
292.666
292.938
293.202
293.45
293.67
293.857
294.007
294.13
294.232
294.322
294.407
294.496
294.603
294.739
294.912
295.138
295.434
295.828
296.352
297.039
297.898
298.872
299.861
300.989
302.769
305.884
288.674
289.512
290.099
290.512
290.823
291.084
291.323
291.556
291.79
292.031
292.286
292.556
292.839
293.129
293.415
293.684
293.924
294.128
294.298
294.441
294.569
294.696
294.838
295.011
295.235
295.531
295.927
296.456
297.146
297.998
298.954
299.922
301.023
302.768
305.873
288.559
289.234
289.746
290.129
290.416
290.65
290.859
291.054
291.244
291.434
291.63
291.838
292.064
292.315
292.596
292.913
293.26
293.586
293.893
294.174
294.427
294.648
294.841
295.041
295.278
295.576
295.967
296.488
297.169
298.014
298.959
299.92
301.015
302.744
305.835
288.5
289.111
289.625
290.03
290.329
290.566
290.775
290.971
291.16
291.347
291.531
291.712
291.889
292.06
292.224
292.385
292.559
292.807
293.113
293.473
293.863
294.263
294.623
294.937
295.229
295.544
295.938
296.457
297.139
297.986
298.934
299.895
300.973
302.668
305.777
288.482
289.093
289.613
290.023
290.328
290.567
290.776
290.974
291.167
291.359
291.553
291.748
291.935
292.105
292.255
292.39
292.52
292.656
292.806
292.987
293.271
293.672
294.117
294.579
295.024
295.435
295.863
296.38
297.045
297.878
298.822
299.79
300.869
302.557
305.718
288.478
289.104
289.656
290.102
290.432
290.691
290.919
291.139
291.361
291.595
291.841
292.082
292.292
292.455
292.57
292.651
292.715
292.778
292.857
292.966
293.137
293.396
293.749
294.198
294.72
295.243
295.757
296.319
297.004
297.843
298.786
299.757
300.831
302.503
305.693
288.51
289.229
289.867
290.356
290.713
291.002
291.27
291.539
291.826
292.138
292.459
292.747
292.96
293.086
293.141
293.152
293.147
293.143
293.154
293.194
293.279
293.432
293.67
294.02
294.505
295.065
295.649
296.261
296.958
297.79
298.73
299.705
300.796
302.502
305.704
288.588
289.44
290.139
290.637
291.002
291.318
291.628
291.957
292.32
292.724
293.126
293.433
293.6
293.656
293.65
293.622
293.584
293.551
293.531
293.537
293.579
293.662
293.809
294.06
294.443
294.945
295.538
296.203
296.955
297.801
298.737
299.708
300.801
302.511
305.734
288.677
289.624
290.321
290.783
291.136
291.464
291.804
292.179
292.621
293.112
293.549
293.818
293.932
293.962
293.958
293.939
293.914
293.89
293.877
293.881
293.911
293.97
294.073
294.248
294.544
294.991
295.563
296.229
296.991
297.864
298.805
299.757
300.853
302.611
305.808
288.721
289.691
290.369
290.808
291.149
291.478
291.832
292.232
292.684
293.16
293.598
293.901
294.052
294.12
294.15
294.163
294.17
294.177
294.19
294.215
294.261
294.337
294.455
294.635
294.909
295.307
295.834
296.475
297.228
298.082
298.98
299.889
300.981
302.774
305.908
288.725
289.698
290.375
290.813
291.159
291.497
291.85
292.24
292.684
293.169
293.634
293.999
294.217
294.315
294.368
294.401
294.427
294.453
294.482
294.52
294.572
294.654
294.781
294.969
295.244
295.632
296.142
296.774
297.514
298.331
299.173
300.038
301.121
302.936
305.98
288.744
289.729
290.393
290.823
291.164
291.498
291.855
292.262
292.723
293.211
293.681
294.08
294.363
294.545
294.637
294.686
294.723
294.763
294.808
294.861
294.929
295.022
295.153
295.347
295.626
296.013
296.52
297.14
297.847
298.611
299.402
300.226
301.294
303.118
306.059
288.758
289.748
290.404
290.826
291.166
291.501
291.853
292.23
292.632
293.062
293.507
293.936
294.307
294.585
294.775
294.901
294.99
295.053
295.111
295.182
295.273
295.393
295.552
295.77
296.07
296.465
296.96
297.543
298.202
298.912
299.642
300.424
301.482
303.297
306.128
288.74
289.67
290.279
290.678
290.989
291.274
291.551
291.829
292.121
292.438
292.79
293.191
293.642
294.11
294.537
294.872
295.108
295.267
295.385
295.488
295.6
295.736
295.906
296.128
296.422
296.8
297.267
297.819
298.441
299.107
299.798
300.55
301.59
303.396
306.161
288.641
289.442
290.01
290.392
290.674
290.914
291.134
291.343
291.547
291.752
291.973
292.231
292.553
292.976
293.52
294.083
294.635
295.109
295.455
295.694
295.882
296.063
296.261
296.501
296.801
297.175
297.626
298.152
298.736
299.352
299.993
300.713
301.722
303.453
306.158
288.585
289.321
289.874
290.263
290.551
290.796
291.025
291.247
291.462
291.669
291.866
292.052
292.234
292.414
292.62
292.99
293.505
294.13
294.793
295.383
295.815
296.109
296.385
296.678
297.01
297.394
297.843
298.354
298.913
299.501
300.114
300.8
301.754
303.448
306.133
288.58
289.308
289.858
290.248
290.536
290.779
291.004
291.22
291.428
291.632
291.83
292.023
292.207
292.38
292.539
292.699
292.913
293.252
293.765
294.469
295.249
295.895
296.333
296.668
297.015
297.414
297.869
298.379
298.933
299.516
300.127
300.807
301.75
303.396
306.085
288.536
289.21
289.75
290.148
290.44
290.679
290.895
291.101
291.3
291.495
291.687
291.879
292.071
292.264
292.455
292.637
292.805
292.968
293.173
293.5
294.083
294.917
295.755
296.419
296.907
297.352
297.826
298.346
298.904
299.488
300.098
300.771
301.673
303.256
306.002
288.512
289.172
289.717
290.118
290.41
290.648
290.862
291.066
291.262
291.453
291.64
291.825
292.008
292.191
292.374
292.558
292.745
292.934
293.124
293.316
293.54
293.911
294.575
295.465
296.3
296.958
297.533
298.107
298.708
299.335
299.987
300.686
301.575
303.1
305.902
288.507
289.168
289.716
290.117
290.409
290.648
290.864
291.066
291.261
291.451
291.638
291.822
292.006
292.189
292.373
292.561
292.758
292.968
293.188
293.391
293.552
293.7
293.972
294.541
295.411
296.286
297.035
297.714
298.387
299.067
299.755
300.477
301.379
302.924
305.828
288.516
289.208
289.77
290.171
290.462
290.701
290.917
291.122
291.32
291.513
291.705
291.896
292.089
292.287
292.491
292.706
292.945
293.224
293.54
293.831
294.036
294.13
294.237
294.545
295.151
295.946
296.742
297.489
298.218
298.949
299.686
300.45
301.379
302.928
305.838
288.538
289.258
289.822
290.214
290.498
290.735
290.952
291.159
291.361
291.56
291.759
291.96
292.163
292.376
292.603
292.862
293.179
293.592
294.069
294.461
294.671
294.733
294.784
294.943
295.439
296.149
296.874
297.58
298.293
299.013
299.737
300.495
301.443
303.042
305.948
288.573
289.331
289.897
290.277
290.554
290.787
291.002
291.209
291.411
291.613
291.816
292.021
292.235
292.466
292.729
293.054
293.51
294.168
294.89
295.319
295.45
295.492
295.597
295.842
296.262
296.792
297.366
297.978
298.633
299.313
300.007
300.751
301.73
303.394
306.163
288.61
289.395
289.964
290.338
290.608
290.837
291.049
291.254
291.455
291.656
291.855
292.056
292.265
292.494
292.771
293.126
293.625
294.336
295.152
295.718
295.972
296.078
296.226
296.483
296.851
297.303
297.815
298.381
298.993
299.635
300.299
301.025
302.011
303.688
306.301
288.614
289.401
289.973
290.349
290.619
290.846
291.057
291.26
291.461
291.66
291.857
292.054
292.246
292.435
292.628
292.871
293.229
293.821
294.728
295.688
296.283
296.567
296.756
296.982
297.294
297.697
298.177
298.721
299.308
299.917
300.548
301.254
302.237
303.895
306.364
288.635
289.455
290.044
290.423
290.69
290.913
291.12
291.32
291.514
291.703
291.887
292.068
292.25
292.435
292.618
292.805
293.032
293.369
293.94
294.845
295.839
296.569
296.973
297.301
297.643
298.033
298.488
299.004
299.565
300.147
300.746
301.418
302.364
303.963
306.359
288.636
289.469
290.094
290.505
290.789
291.025
291.242
291.447
291.64
291.818
291.983
292.14
292.295
292.453
292.618
292.79
292.969
293.159
293.431
293.919
294.749
295.831
296.74
297.278
297.674
298.097
298.574
299.108
299.675
300.251
300.836
301.482
302.381
303.93
306.313
288.651
289.518
290.174
290.612
290.919
291.176
291.415
291.64
291.843
292.018
292.167
292.299
292.424
292.55
292.681
292.82
292.972
293.142
293.339
293.586
294.023
294.798
295.868
296.872
297.583
298.083
298.573
299.11
299.681
300.261
300.85
301.496
302.382
303.897
306.287
288.66
289.555
290.245
290.712
291.045
291.329
291.6
291.855
292.079
292.262
292.406
292.523
292.628
292.73
292.834
292.945
293.063
293.193
293.339
293.522
293.768
294.18
294.96
296.09
297.195
298.011
298.557
299.1
299.669
300.251
300.844
301.493
302.373
303.884
306.28
288.663
289.574
290.29
290.779
291.137
291.452
291.758
292.048
292.294
292.492
292.641
292.758
292.857
292.95
293.043
293.141
293.244
293.353
293.468
293.594
293.743
293.949
294.287
294.935
295.92
297.048
298.035
298.745
299.358
299.985
300.625
301.298
302.161
303.616
306.137
288.667
289.585
290.301
290.79
291.155
291.484
291.81
292.131
292.433
292.667
292.839
292.971
293.081
293.182
293.281
293.384
293.49
293.6
293.71
293.819
293.926
294.043
294.202
294.47
294.985
295.927
297.166
298.29
299.121
299.794
300.46
301.165
302.044
303.504
306.091
288.662
289.579
290.296
290.786
291.152
291.482
291.808
292.13
292.439
292.724
292.965
293.142
293.286
293.414
293.54
293.67
293.802
293.935
294.061
294.173
294.268
294.352
294.438
294.555
294.78
295.254
296.215
297.565
298.848
299.738
300.438
301.151
302.034
303.497
306.09
288.649
289.552
290.257
290.744
291.116
291.454
291.785
292.111
292.427
292.725
293.004
293.254
293.452
293.63
293.804
293.983
294.17
294.353
294.52
294.661
294.771
294.847
294.9
294.945
295.013
295.201
295.584
296.344
297.549
298.88
299.963
300.811
301.733
303.239
305.977
288.629
289.499
290.167
290.637
291.004
291.341
291.673
292.009
292.348
292.683
292.998
293.299
293.59
293.847
294.088
294.348
294.622
294.889
295.12
295.299
295.418
295.491
295.531
295.548
295.557
295.57
295.66
295.941
296.486
297.399
298.527
299.687
300.848
302.495
305.66
288.614
289.433
290.044
290.475
290.819
291.141
291.464
291.8
292.156
292.533
292.914
293.281
293.628
293.979
294.359
294.757
295.157
295.524
295.808
295.994
296.099
296.147
296.143
296.098
296.032
295.963
295.926
295.99
296.369
297.088
298.205
299.483
300.72
302.43
305.66
288.609
289.395
289.96
290.348
290.655
290.938
291.223
291.528
291.865
292.241
292.655
293.093
293.535
293.972
294.421
294.917
295.471
295.993
296.394
296.658
296.823
296.902
296.907
296.853
296.758
296.631
296.511
296.453
296.593
297.218
298.309
299.532
300.781
302.587
305.831
288.608
289.382
289.933
290.303
290.581
290.827
291.068
291.316
291.587
291.897
292.264
292.698
293.169
293.682
294.237
294.859
295.551
296.219
296.785
297.233
297.548
297.742
297.845
297.889
297.889
297.862
297.844
297.92
298.2
298.807
299.682
300.615
301.732
303.52
306.26
288.585
289.333
289.891
290.266
290.542
290.782
291.015
291.253
291.501
291.759
292.03
292.326
292.709
293.182
293.717
294.323
295.049
295.861
296.646
297.327
297.858
298.248
298.539
298.764
298.952
299.13
299.329
299.594
299.98
300.502
301.107
301.785
302.731
304.308
306.528
288.582
289.332
289.888
290.267
290.544
290.785
291.019
291.257
291.503
291.763
292.029
292.299
292.578
292.867
293.235
293.708
294.277
294.96
295.764
296.672
297.546
298.209
298.646
299.021
299.366
299.707
300.061
300.446
300.874
301.341
301.845
302.425
303.247
304.615
306.607
288.578
289.335
289.914
290.313
290.602
290.85
291.093
291.343
291.602
291.859
292.103
292.341
292.587
292.851
293.132
293.434
293.799
294.243
294.788
295.464
296.269
297.15
298.024
298.753
299.32
299.735
300.146
300.572
301.018
301.488
301.985
302.545
303.318
304.622
306.593
288.592
289.397
290.04
290.48
290.796
291.072
291.35
291.645
291.944
292.216
292.436
292.612
292.773
292.951
293.164
293.416
293.696
293.994
294.311
294.678
295.133
295.717
296.44
297.254
298.109
298.957
299.691
300.327
300.896
301.431
301.962
302.535
303.308
304.583
306.534
288.657
289.578
290.286
290.756
291.103
291.426
291.767
292.134
292.501
292.807
293.011
293.134
293.226
293.323
293.448
293.61
293.808
294.03
294.261
294.497
294.752
295.058
295.463
296.003
296.682
297.47
298.306
299.135
299.922
300.652
301.345
302.053
302.922
304.278
306.423
288.735
289.76
290.497
290.978
291.354
291.721
292.12
292.554
292.976
293.312
293.52
293.616
293.682
293.749
293.834
293.947
294.086
294.247
294.418
294.596
294.782
294.984
295.216
295.512
295.914
296.458
297.142
297.929
298.766
299.609
300.434
301.264
302.227
303.702
306.201
288.77
289.815
290.541
291.011
291.387
291.764
292.17
292.596
293.01
293.377
293.668
293.885
294.006
294.083
294.163
294.258
294.371
294.5
294.641
294.792
294.947
295.104
295.274
295.478
295.733
296.073
296.541
297.166
297.935
298.809
299.735
300.664
301.686
303.238
306.018
288.771
289.806
290.508
290.961
291.324
291.676
292.032
292.403
292.801
293.211
293.592
293.897
294.126
294.298
294.418
294.517
294.623
294.738
294.865
295.005
295.152
295.301
295.453
295.612
295.796
296.046
296.397
296.891
297.573
298.448
299.438
300.411
301.441
303.009
305.919
288.721
289.669
290.319
290.74
291.052
291.33
291.607
291.913
292.273
292.684
293.14
293.608
294.017
294.318
294.532
294.695
294.823
294.944
295.072
295.212
295.357
295.506
295.657
295.812
295.979
296.171
296.438
296.868
297.507
298.376
299.386
300.364
301.385
302.949
305.893
288.658
289.533
290.174
290.593
290.899
291.163
291.41
291.648
291.889
292.18
292.542
292.999
293.519
294.036
294.451
294.735
294.937
295.1
295.25
295.401
295.554
295.71
295.87
296.033
296.206
296.4
296.643
296.988
297.545
298.38
299.392
300.372
301.392
302.958
305.896
288.65
289.524
290.165
290.586
290.892
291.155
291.401
291.636
291.865
292.094
292.336
292.617
293.002
293.508
294.071
294.569
294.925
295.175
295.375
295.555
295.726
295.895
296.067
296.243
296.429
296.638
296.897
297.257
297.808
298.62
299.613
300.554
301.54
303.081
305.94
288.644
289.511
290.15
290.572
290.877
291.138
291.381
291.618
291.851
292.085
292.324
292.581
292.874
293.235
293.715
294.281
294.795
295.176
295.458
295.687
295.887
296.076
296.264
296.456
296.657
296.882
297.161
297.544
298.112
298.919
299.864
300.754
301.71
303.229
306
288.64
289.506
290.148
290.572
290.877
291.137
291.379
291.613
291.845
292.079
292.32
292.578
292.869
293.215
293.641
294.151
294.692
295.162
295.529
295.815
296.054
296.271
296.483
296.697
296.921
297.17
297.474
297.883
298.465
299.243
300.116
300.95
301.881
303.383
306.069
288.647
289.527
290.175
290.599
290.903
291.161
291.399
291.63
291.859
292.091
292.331
292.589
292.878
293.227
293.657
294.164
294.699
295.195
295.608
295.938
296.214
296.463
296.705
296.948
297.201
297.481
297.814
298.244
298.818
299.541
300.329
301.107
302.02
303.512
306.13
288.665
289.571
290.227
290.65
290.952
291.208
291.443
291.67
291.894
292.12
292.354
292.605
292.892
293.239
293.674
294.195
294.747
295.263
295.7
296.056
296.359
296.638
296.909
297.183
297.469
297.78
298.141
298.581
299.13
299.785
300.493
301.223
302.118
303.602
306.173
288.68
289.606
290.272
290.697
290.999
291.253
291.487
291.712
291.931
292.15
292.372
292.606
292.857
293.171
293.575
294.096
294.688
295.248
295.724
296.127
296.474
296.791
297.097
297.406
297.725
298.068
298.449
298.891
299.409
300.001
300.64
301.323
302.197
303.671
306.204
288.691
289.635
290.312
290.742
291.046
291.299
291.532
291.754
291.971
292.184
292.395
292.609
292.836
293.08
293.397
293.846
294.419
295.043
295.624
296.102
296.499
296.866
297.219
297.569
297.927
298.304
298.709
299.156
299.652
300.199
300.789
301.43
302.269
303.714
306.216
288.705
289.676
290.373
290.811
291.117
291.372
291.604
291.825
292.038
292.244
292.445
292.643
292.846
293.069
293.323
293.646
294.107
294.704
295.349
295.936
296.433
296.856
297.246
297.636
298.034
298.445
298.88
299.344
299.843
300.375
300.94
301.56
302.373
303.777
306.233
288.725
289.732
290.453
290.903
291.214
291.471
291.706
291.927
292.14
292.344
292.539
292.727
292.913
293.104
293.322
293.585
293.948
294.452
295.069
295.698
296.262
296.755
297.205
297.632
298.053
298.488
298.945
299.426
299.933
300.465
301.028
301.645
302.457
303.847
306.257
288.746
289.792
290.538
291
291.319
291.581
291.819
292.043
292.256
292.459
292.651
292.835
293.011
293.186
293.368
293.578
293.843
294.219
294.747
295.366
295.986
296.551
297.065
297.549
298.022
298.484
298.947
299.432
299.942
300.475
301.037
301.655
302.47
303.863
306.26
288.77
289.862
290.638
291.113
291.438
291.707
291.948
292.173
292.385
292.583
292.771
292.949
293.12
293.285
293.45
293.624
293.826
294.089
294.454
294.958
295.559
296.174
296.754
297.299
297.829
298.357
298.883
299.403
299.929
300.468
301.031
301.649
302.464
303.858
306.253
288.796
289.937
290.742
291.23
291.564
291.839
292.085
292.31
292.517
292.711
292.893
293.066
293.234
293.396
293.557
293.719
293.891
294.09
294.344
294.697
295.183
295.765
296.37
296.959
297.534
298.106
298.679
299.251
299.823
300.396
300.981
301.611
302.43
303.825
306.236
288.825
290.019
290.851
291.351
291.693
291.974
292.221
292.444
292.645
292.832
293.007
293.176
293.341
293.502
293.663
293.823
293.989
294.17
294.378
294.643
295.006
295.498
296.074
296.674
297.276
297.882
298.497
299.119
299.74
300.355
300.966
301.605
302.425
303.823
306.235
288.856
290.102
290.96
291.473
291.826
292.116
292.368
292.587
292.782
292.959
293.126
293.288
293.45
293.611
293.774
293.937
294.104
294.278
294.467
294.693
294.993
295.395
295.895
296.462
297.06
297.676
298.314
298.97
299.631
300.284
300.93
301.597
302.429
303.839
306.245
288.882
290.171
291.052
291.58
291.948
292.251
292.508
292.726
292.915
293.083
293.242
293.398
293.555
293.715
293.881
294.052
294.227
294.408
294.597
294.808
295.065
295.409
295.855
296.362
296.911
297.496
298.117
298.77
299.442
300.119
300.796
301.503
302.396
303.843
306.256
288.902
290.222
291.118
291.66
292.044
292.361
292.626
292.846
293.031
293.194
293.346
293.497
293.652
293.813
293.982
294.16
294.35
294.547
294.751
294.969
295.214
295.512
295.889
296.359
296.87
297.408
297.991
298.617
299.279
299.958
300.643
301.362
302.281
303.789
306.247
288.919
290.264
291.173
291.728
292.13
292.465
292.742
292.964
293.145
293.299
293.443
293.585
293.734
293.891
294.061
294.244
294.444
294.662
294.893
295.133
295.385
295.664
295.993
296.389
296.869
297.398
297.963
298.576
299.23
299.896
300.569
301.281
302.204
303.741
306.233
288.927
290.284
291.201
291.769
292.191
292.549
292.844
293.075
293.254
293.402
293.535
293.667
293.806
293.955
294.119
294.302
294.508
294.742
295.005
295.281
295.558
295.839
296.14
296.485
296.896
297.398
297.962
298.574
299.224
299.893
300.56
301.267
302.192
303.738
306.231
288.937
290.309
291.23
291.808
292.247
292.628
292.944
293.186
293.367
293.509
293.632
293.752
293.878
294.017
294.171
294.348
294.554
294.798
295.087
295.405
295.725
296.035
296.34
296.661
297.025
297.455
297.976
298.578
299.231
299.894
300.563
301.269
302.195
303.742
306.237
288.941
290.318
291.243
291.83
292.286
292.691
293.032
293.291
293.478
293.617
293.732
293.84
293.952
294.076
294.218
294.383
294.579
294.822
295.126
295.479
295.852
296.215
296.559
296.897
297.255
297.662
298.144
298.702
299.31
299.938
300.578
301.272
302.198
303.758
306.248
288.948
290.334
291.265
291.858
292.326
292.754
293.119
293.397
293.594
293.735
293.845
293.942
294.039
294.145
294.267
294.411
294.589
294.823
295.126
295.49
295.896
296.315
296.719
297.105
297.494
297.913
298.386
298.917
299.488
300.078
300.684
301.347
302.246
303.783
306.253
288.951
290.346
291.288
291.892
292.374
292.823
293.212
293.509
293.717
293.861
293.968
294.057
294.142
294.23
294.331
294.452
294.608
294.817
295.094
295.448
295.874
296.328
296.783
297.226
297.662
298.111
298.593
299.116
299.67
300.241
300.827
301.47
302.345
303.849
306.274
288.957
290.364
291.32
291.935
292.434
292.908
293.322
293.64
293.863
294.014
294.12
294.202
294.275
294.347
294.426
294.522
294.648
294.814
295.029
295.317
295.711
296.217