/*--------------------------------*- C++ -*----------------------------------*\
| =========                 |                                                 |
| \\      /  F ield         | OpenFOAM: The Open Source CFD Toolbox           |
|  \\    /   O peration     | Version:  2.0.x                                 |
|   \\  /    A nd           | Web:      www.OpenFOAM.org                      |
|    \\/     M anipulation  |                                                 |
\*---------------------------------------------------------------------------*/
FoamFile
{
    version     2.0;
    format      ascii;
    class       volVectorField;
    location    "500";
    object      U;
}
// * * * * * * * * * * * * * * * * * * * * * * * * * * * * * * * * * * * * * //

dimensions      [0 1 -1 0 0 0 0];

internalField   nonuniform List<vector> 
78750
(
(-0.00372995 0.0186076 0.0358114)
(-0.0135009 0.0127823 0.0561154)
(-0.0229777 -0.00191555 0.0569063)
(-0.0297557 -0.0169278 0.055736)
(-0.0310168 -0.0293283 0.0548007)
(-0.0300222 -0.0384483 0.0550244)
(-0.0252093 -0.0458313 0.0544651)
(-0.019141 -0.051051 0.0538)
(-0.0117963 -0.0545071 0.0531952)
(-0.00373422 -0.0566373 0.0526651)
(0.00468923 -0.0577135 0.0522393)
(0.0133204 -0.0580391 0.0519007)
(0.0218019 -0.0578521 0.0516307)
(0.0301701 -0.0569867 0.0514284)
(0.0382169 -0.0557033 0.0512125)
(0.0459134 -0.0540518 0.0509851)
(0.0531 -0.0521774 0.0506478)
(0.0596509 -0.0499723 0.0503088)
(0.0655515 -0.047633 0.0499099)
(0.0706787 -0.0448248 0.0495929)
(0.0751526 -0.0414689 0.0493233)
(0.078394 -0.0391202 0.048954)
(0.0815094 -0.0332038 0.0485089)
(0.0825957 -0.0307517 0.0480515)
(0.0834243 -0.0264286 0.0477153)
(0.0827921 -0.0216642 0.0474426)
(0.0808895 -0.0164916 0.047223)
(0.0778295 -0.0110416 0.0470879)
(0.0729866 -0.00511127 0.0470233)
(0.0664141 0.00149381 0.0470821)
(0.0581532 0.00962919 0.0471889)
(0.0484965 0.0166094 0.0478281)
(0.0360403 0.0235697 0.0490898)
(0.022093 0.0328576 0.0499518)
(0.00692529 0.036086 0.0331441)
(0.000178553 0.0323986 0.0258227)
(-0.000583766 0.0439847 0.0424782)
(-0.00262116 0.0283082 0.0459531)
(-0.00211898 -0.00419945 0.0436223)
(-0.000889986 -0.0445258 0.0395224)
(0.00352747 -0.0769364 0.0346058)
(0.00746861 -0.0949682 0.0335869)
(0.0122486 -0.107058 0.0320501)
(0.0172041 -0.114751 0.0306838)
(0.0221846 -0.119117 0.029658)
(0.0266896 -0.120973 0.0289556)
(0.0319457 -0.120501 0.0285088)
(0.0355115 -0.119352 0.0283705)
(0.039993 -0.116617 0.0283823)
(0.0436038 -0.112904 0.028578)
(0.0469223 -0.108369 0.0289247)
(0.0499142 -0.103094 0.0294163)
(0.052549 -0.0971323 0.0300483)
(0.0548145 -0.0905181 0.030806)
(0.0565952 -0.0832338 0.0317174)
(0.0582817 -0.0751653 0.032825)
(0.0587198 -0.06743 0.0336625)
(0.0591594 -0.058686 0.0347768)
(0.0589026 -0.0488644 0.0361154)
(0.0578288 -0.0382345 0.0375761)
(0.0562741 -0.0275516 0.0384465)
(0.054258 -0.0161763 0.039188)
(0.0517296 -0.00357461 0.0399623)
(0.0467691 0.016433 0.0410248)
(0.0431504 0.0270294 0.041425)
(0.0372811 0.0423041 0.0421005)
(0.0303692 0.0611368 0.0428558)
(0.0214873 0.0819984 0.0438137)
(0.0111869 0.0999028 0.0417138)
(0.00304385 0.0917356 0.0289219)
(5.87688e-06 0.00398631 0.0184825)
(0.00270998 -0.00664368 0.0331928)
(0.00750011 -0.0396128 0.0349435)
(0.0135455 -0.078152 0.0329337)
(0.0189564 -0.110975 0.0291636)
(0.0224707 -0.13308 0.0259861)
(0.0250437 -0.145808 0.0234687)
(0.0270407 -0.152067 0.0218139)
(0.0286702 -0.154402 0.0207646)
(0.0300437 -0.154256 0.0202405)
(0.0310451 -0.15302 0.0200555)
(0.032008 -0.150221 0.0200461)
(0.0328528 -0.146471 0.0202157)
(0.0335187 -0.142063 0.020531)
(0.0341354 -0.136985 0.0209741)
(0.0346984 -0.131291 0.0215368)
(0.0352188 -0.125009 0.0222165)
(0.0356762 -0.11816 0.0230046)
(0.0360377 -0.110757 0.0238932)
(0.0363649 -0.102769 0.0248921)
(0.0362656 -0.0938237 0.0261731)
(0.0367369 -0.0827682 0.0282584)
(0.0363004 -0.0715295 0.0304372)
(0.0357949 -0.059908 0.032696)
(0.0348331 -0.0483003 0.0347373)
(0.0337582 -0.0373324 0.0363319)
(0.0321307 -0.0250631 0.0379161)
(0.0301161 -0.00700154 0.0398759)
(0.0277414 0.00898158 0.0410178)
(0.0255658 0.0214818 0.0415628)
(0.0221924 0.0434893 0.0418295)
(0.0181441 0.0712434 0.0410855)
(0.0119975 0.101263 0.0392053)
(0.00575286 0.118897 0.0350916)
(0.00151883 0.102307 0.0236159)
(-0.000291381 -0.010042 0.0140985)
(0.00156025 -0.0489128 0.0224214)
(0.00499992 -0.0914436 0.0210164)
(0.00860083 -0.124264 0.0177477)
(0.0116372 -0.143066 0.0155955)
(0.0141546 -0.152459 0.014548)
(0.0161284 -0.157371 0.0140825)
(0.0177082 -0.160203 0.0138628)
(0.0190685 -0.161748 0.0137563)
(0.0204096 -0.162195 0.0137146)
(0.0215325 -0.161761 0.0137138)
(0.0227291 -0.160346 0.0137788)
(0.0237764 -0.157986 0.0139272)
(0.0247769 -0.154697 0.0141607)
(0.025675 -0.150517 0.0144837)
(0.0264526 -0.145476 0.0149083)
(0.027091 -0.139602 0.0154484)
(0.0275731 -0.132917 0.0161255)
(0.0278827 -0.125446 0.0169638)
(0.0279869 -0.117247 0.0179733)
(0.027889 -0.108408 0.0191467)
(0.0276121 -0.0988311 0.0205136)
(0.0272409 -0.0881594 0.0222188)
(0.0266604 -0.0761369 0.0244193)
(0.026027 -0.062291 0.0273518)
(0.0247376 -0.0480061 0.0303597)
(0.0233208 -0.0343789 0.0333053)
(0.0219795 -0.0179257 0.0369203)
(0.0201576 0.00244468 0.0406915)
(0.0184419 0.0167458 0.0426492)
(0.0159877 0.0421112 0.0443322)
(0.012934 0.076103 0.0436667)
(0.00833274 0.112664 0.0397148)
(0.00368062 0.129538 0.0335823)
(0.000807912 0.104988 0.0211709)
(4.44926e-05 -0.0186273 0.00915285)
(0.00217894 -0.0693003 0.0136782)
(0.00531483 -0.11405 0.0132829)
(0.00858518 -0.14527 0.0124419)
(0.0115642 -0.164773 0.0117462)
(0.0142597 -0.17657 0.0111083)
(0.0167691 -0.183471 0.0104912)
(0.0190575 -0.187076 0.00989869)
(0.0212083 -0.188286 0.00933554)
(0.022859 -0.187898 0.0089315)
(0.0245606 -0.186083 0.00850235)
(0.0258792 -0.183053 0.00815606)
(0.0270277 -0.179003 0.00786712)
(0.0279765 -0.174026 0.00763169)
(0.0287208 -0.168168 0.00745544)
(0.0292658 -0.161479 0.00735059)
(0.0296143 -0.153992 0.00733568)
(0.0297659 -0.145736 0.00743671)
(0.0297167 -0.136716 0.00770267)
(0.0294588 -0.12692 0.00821077)
(0.0289793 -0.116343 0.00903186)
(0.0282667 -0.105 0.0102313)
(0.0273245 -0.0929202 0.0118843)
(0.0261819 -0.0800393 0.014085)
(0.0248898 -0.0663625 0.0168798)
(0.023354 -0.0528102 0.0197117)
(0.0218394 -0.0408035 0.022688)
(0.0202488 -0.0267462 0.0270276)
(0.0182737 -0.0083031 0.0326814)
(0.0166107 0.00580492 0.0364138)
(0.0141754 0.0326575 0.0411279)
(0.0116501 0.0738572 0.0431199)
(0.00745909 0.116173 0.0394371)
(0.00346293 0.134114 0.0325221)
(0.000839995 0.105857 0.0197333)
(0.000101667 -0.0316818 0.0068413)
(0.00217751 -0.0961168 0.00951658)
(0.00511242 -0.143917 0.0086974)
(0.00821602 -0.172286 0.00751835)
(0.0110714 -0.186522 0.00659948)
(0.0136625 -0.193311 0.00593811)
(0.0159695 -0.196349 0.00544447)
(0.0181874 -0.197141 0.00504257)
(0.0199083 -0.196671 0.00477774)
(0.0216725 -0.195063 0.00445501)
(0.0230416 -0.192438 0.00412968)
(0.0242618 -0.188939 0.00378521)
(0.0252572 -0.184866 0.00337225)
(0.0260325 -0.179831 0.00297023)
(0.0265892 -0.173775 0.00260851)
(0.0269197 -0.166795 0.00227216)
(0.0270326 -0.158908 0.0019778)
(0.026938 -0.150172 0.00173773)
(0.0266538 -0.140614 0.00162353)
(0.026211 -0.130303 0.00174846)
(0.0256321 -0.119372 0.00213932)
(0.0249375 -0.107864 0.00283581)
(0.0241341 -0.0957385 0.00391001)
(0.0232336 -0.0828985 0.00547453)
(0.0221958 -0.0692838 0.00772997)
(0.0210464 -0.0554776 0.0109769)
(0.0197393 -0.0432414 0.0138689)
(0.0182533 -0.0294022 0.0174685)
(0.0166 -0.0114408 0.0228991)
(0.0148231 0.00394132 0.0274815)
(0.0123336 0.0286355 0.033543)
(0.00991801 0.0735242 0.0395286)
(0.00638823 0.121028 0.0387275)
(0.00288608 0.139846 0.0322661)
(0.000668159 0.107801 0.0188932)
(0.000185382 -0.039801 0.00411326)
(0.00224942 -0.111172 0.0055516)
(0.0050123 -0.159971 0.00539361)
(0.00781092 -0.188091 0.00509235)
(0.0104151 -0.202886 0.00474332)
(0.0128555 -0.210579 0.00433455)
(0.0151371 -0.214367 0.00385931)
(0.0173895 -0.215585 0.00333059)
(0.0192496 -0.215118 0.00286793)
(0.0211079 -0.213164 0.00230037)
(0.022628 -0.209839 0.00172262)
(0.0239487 -0.205172 0.00116743)
(0.0250145 -0.198872 0.00071806)
(0.0258026 -0.191493 0.000291962)
(0.0263383 -0.183272 -0.000134765)
(0.0266625 -0.174193 -0.000511244)
(0.0267634 -0.164411 -0.000820036)
(0.0266606 -0.154033 -0.00102326)
(0.0263747 -0.143252 -0.00111924)
(0.0259187 -0.132177 -0.00112296)
(0.0253149 -0.120741 -0.000946678)
(0.0245642 -0.108881 -0.000505466)
(0.02367 -0.0965347 0.000293568)
(0.0226501 -0.0836294 0.00153641)
(0.0215217 -0.0702063 0.00327053)
(0.0202785 -0.0569868 0.00530374)
(0.0189823 -0.0452389 0.00710084)
(0.0174836 -0.0329145 0.00917396)
(0.0160393 -0.0176494 0.0127062)
(0.013805 0.00422218 0.0189208)
(0.0115513 0.0254256 0.0247138)
(0.00872731 0.0709894 0.0333124)
(0.00545091 0.122471 0.0352057)
(0.00241964 0.142188 0.029909)
(0.000521226 0.108297 0.0166876)
(0.000230108 -0.049993 0.00287386)
(0.00224332 -0.130491 0.00405332)
(0.00477792 -0.180449 0.00403623)
(0.00727492 -0.205889 0.00369871)
(0.00957474 -0.21733 0.00323647)
(0.0116744 -0.222208 0.00273303)
(0.0137905 -0.223614 0.00220032)
(0.0155236 -0.223017 0.00176827)
(0.0172838 -0.220737 0.00124384)
(0.0187045 -0.217149 0.000693263)
(0.0198642 -0.21261 9.14372e-05)
(0.0207532 -0.206961 -0.000582827)
(0.0213857 -0.200312 -0.00135288)
(0.0218665 -0.192733 -0.00224)
(0.0220769 -0.184388 -0.00326724)
(0.0222467 -0.175135 -0.00439378)
(0.0222718 -0.165198 -0.00556565)
(0.0222087 -0.15466 -0.006711)
(0.0221541 -0.143542 -0.0077064)
(0.0219005 -0.131938 -0.00864118)
(0.021535 -0.119882 -0.00943689)
(0.0210202 -0.107432 -0.00994405)
(0.020367 -0.094667 -0.0100166)
(0.0196091 -0.0816643 -0.00955535)
(0.0187869 -0.0685443 -0.00851227)
(0.0179013 -0.0557095 -0.00697958)
(0.0169205 -0.043699 -0.00525922)
(0.0157048 -0.0309256 -0.00288653)
(0.0142433 -0.015156 0.000922268)
(0.0121848 0.00723731 0.00759635)
(0.010224 0.0287911 0.013212)
(0.00737587 0.0740435 0.0227933)
(0.00451824 0.125156 0.0299122)
(0.00182877 0.144319 0.0263526)
(0.000429491 0.108364 0.0151161)
(0.000267623 -0.057402 0.00173506)
(0.00198342 -0.142453 0.00278975)
(0.00393681 -0.192313 0.00316411)
(0.00580444 -0.217277 0.00323453)
(0.00755622 -0.228841 0.00309356)
(0.00922035 -0.233991 0.00279841)
(0.0109467 -0.23555 0.00237064)
(0.0124737 -0.234824 0.00192648)
(0.0140128 -0.232078 0.0013611)
(0.0153472 -0.227581 0.00073419)
(0.0165522 -0.221356 7.12068e-05)
(0.0175494 -0.21404 -0.000631567)
(0.0183732 -0.205863 -0.00138551)
(0.0190928 -0.19685 -0.00222767)
(0.0193619 -0.187089 -0.00322992)
(0.0199167 -0.17693 -0.00438977)
(0.0200261 -0.166332 -0.00565742)
(0.0200634 -0.155209 -0.00704696)
(0.0198609 -0.143474 -0.0086502)
(0.0195449 -0.131034 -0.0102376)
(0.019015 -0.118098 -0.011699)
(0.0183223 -0.104918 -0.0128948)
(0.0175159 -0.091725 -0.0136906)
(0.0166578 -0.0786926 -0.0140027)
(0.0158031 -0.0659262 -0.0137999)
(0.0149641 -0.0535264 -0.01312)
(0.0140794 -0.0414249 -0.0120764)
(0.013023 -0.0282513 -0.0103414)
(0.0116568 -0.0117716 -0.00723099)
(0.0100181 0.0108417 -0.0012143)
(0.00851743 0.0330414 0.00568484)
(0.00601294 0.0774582 0.0174463)
(0.00327577 0.127658 0.0242552)
(0.00121095 0.144991 0.0223525)
(0.000213978 0.107027 0.01231)
(0.000244703 -0.0646993 0.00166661)
(0.00151324 -0.154195 0.00288671)
(0.00277182 -0.20329 0.00322344)
(0.00390498 -0.225924 0.00325824)
(0.00497275 -0.235559 0.00314522)
(0.00600638 -0.23931 0.00293211)
(0.00710585 -0.239672 0.00262117)
(0.00810693 -0.237877 0.00226902)
(0.00909676 -0.234071 0.00181339)
(0.00998536 -0.228795 0.00127113)
(0.0108071 -0.222348 0.000640627)
(0.0115371 -0.214922 -5.66938e-05)
(0.0122673 -0.206648 -0.000812068)
(0.0125618 -0.197581 -0.00164529)
(0.0133517 -0.187611 -0.00292219)
(0.0133162 -0.176919 -0.00451334)
(0.0135551 -0.165361 -0.00627094)
(0.0135505 -0.152949 -0.00816779)
(0.0134098 -0.139703 -0.010163)
(0.0131161 -0.125764 -0.0122142)
(0.012686 -0.111575 -0.0142293)
(0.0121607 -0.0976445 -0.0160572)
(0.0115916 -0.084294 -0.0175242)
(0.0110225 -0.0716688 -0.0185143)
(0.0104785 -0.0597318 -0.0189879)
(0.00996348 -0.048158 -0.0189084)
(0.00944499 -0.0361722 -0.0181498)
(0.00884181 -0.0223997 -0.0163294)
(0.00801928 -0.00528036 -0.0127596)
(0.00724763 0.0126417 -0.00811843)
(0.00620948 0.0377564 -0.00138466)
(0.00438039 0.0826099 0.0101972)
(0.00226547 0.129432 0.0185996)
(0.000665488 0.144641 0.0185351)
(6.04762e-07 0.103645 0.00961546)
(0.000168602 -0.0687555 0.00141002)
(0.000647885 -0.158917 0.00240114)
(0.00101633 -0.206646 0.00275524)
(0.00139695 -0.229133 0.00301517)
(0.00188636 -0.23921 0.00323528)
(0.00246485 -0.243258 0.00336587)
(0.00311752 -0.243869 0.00338085)
(0.00382539 -0.242041 0.00328739)
(0.00457252 -0.238169 0.00309568)
(0.00533665 -0.232635 0.0028054)
(0.00607696 -0.22566 0.00241463)
(0.00677385 -0.217398 0.00190398)
(0.00733548 -0.208079 0.00127851)
(0.00793694 -0.198013 0.000598602)
(0.00815617 -0.187291 2.9226e-05)
(0.00850485 -0.175778 -0.000801692)
(0.00863856 -0.163557 -0.00190084)
(0.00870731 -0.150648 -0.00329609)
(0.00870483 -0.137035 -0.00501519)
(0.00866293 -0.122753 -0.00706303)
(0.00858682 -0.108266 -0.00937884)
(0.00844544 -0.0942023 -0.0118043)
(0.00823643 -0.0809844 -0.0141378)
(0.0079609 -0.0685214 -0.015985)
(0.0076719 -0.0567975 -0.0172387)
(0.00737911 -0.0456325 -0.0179181)
(0.00709202 -0.0343715 -0.0180181)
(0.00681148 -0.021507 -0.0173005)
(0.00652157 -0.00535566 -0.0153559)
(0.0061745 0.012772 -0.0121702)
(0.00538439 0.0400256 -0.00612665)
(0.00368306 0.0853817 0.00463415)
(0.00182098 0.130063 0.0132942)
(0.000462939 0.143478 0.0144028)
(-2.97569e-07 0.100082 0.00728404)
(4.44191e-05 -0.0698859 0.00153418)
(0.000110718 -0.159403 0.00228523)
(0.000161328 -0.206958 0.00237623)
(0.000326753 -0.229318 0.00257354)
(0.000409249 -0.239539 0.00276868)
(0.00069682 -0.243593 0.00326693)
(0.00103819 -0.244239 0.00360302)
(0.00148278 -0.242415 0.00381535)
(0.0020052 -0.238554 0.00392576)
(0.00257783 -0.233013 0.00392621)
(0.00319282 -0.22603 0.00378909)
(0.00383238 -0.217794 0.00347553)
(0.00441481 -0.208459 0.00295512)
(0.00504754 -0.198183 0.00221988)
(0.00560475 -0.187161 0.00143888)
(0.00605462 -0.175458 0.000597565)
(0.00642523 -0.163092 -0.000394073)
(0.00672498 -0.150067 -0.00157427)
(0.00697042 -0.136335 -0.00296687)
(0.00717972 -0.121853 -0.00459981)
(0.0073493 -0.106915 -0.00644683)
(0.00746976 -0.0920247 -0.00857829)
(0.00753148 -0.0776144 -0.0107455)
(0.00750283 -0.0645814 -0.0131109)
(0.00740684 -0.0528211 -0.0149393)
(0.00724838 -0.0418378 -0.0161685)
(0.00702118 -0.0308825 -0.0168056)
(0.00670423 -0.0184142 -0.0166957)
(0.00624351 -0.00273985 -0.0155953)
(0.00573565 0.0155731 -0.013309)
(0.00483346 0.0470848 -0.00779704)
(0.00329809 0.0922528 0.00130438)
(0.00167047 0.132499 0.00869648)
(0.000627277 0.142943 0.00933861)
(7.73963e-05 0.0973125 0.00475835)
(-2.68615e-05 -0.0698984 0.00135127)
(-0.000169393 -0.159256 0.00150498)
(-0.000213771 -0.206851 0.00130251)
(-0.000152523 -0.229428 0.00130869)
(2.46063e-05 -0.239759 0.00167015)
(0.000177812 -0.244583 0.00217965)
(0.000478442 -0.245863 0.00257538)
(0.000848455 -0.244518 0.00290896)
(0.00130916 -0.241018 0.00319821)
(0.001853 -0.235702 0.00345125)
(0.00246655 -0.228811 0.00367159)
(0.00313243 -0.220536 0.00385253)
(0.00383307 -0.211036 0.0039662)
(0.00452705 -0.200441 0.00395679)
(0.00519874 -0.188914 0.00375266)
(0.00581097 -0.176642 0.00332428)
(0.0063514 -0.16377 0.00265614)
(0.00680983 -0.150373 0.00175449)
(0.00719543 -0.136444 0.000618403)
(0.00753799 -0.12195 -0.000746621)
(0.00784988 -0.107118 -0.00233542)
(0.00813396 -0.0923018 -0.00402841)
(0.00833683 -0.0778772 -0.00583865)
(0.00853298 -0.0641279 -0.00744896)
(0.00849144 -0.0516212 -0.00952233)
(0.00835835 -0.0399383 -0.0112655)
(0.00804698 -0.0282904 -0.0125224)
(0.00754351 -0.0151252 -0.0131665)
(0.00676341 0.00113358 -0.0130243)
(0.00588123 0.0193697 -0.0117963)
(0.00476128 0.0512342 -0.00768521)
(0.0035967 0.0951512 -0.000257493)
(0.00233505 0.133559 0.00641078)
(0.00110224 0.143407 0.00829916)
(0.000290442 0.0974281 0.00439795)
(-5.85814e-05 -0.0682806 0.000689637)
(-0.000272301 -0.157292 -0.000151907)
(-0.000254992 -0.205762 -0.000733804)
(-8.72546e-05 -0.228976 -0.000331971)
(0.000192662 -0.239723 6.80926e-05)
(0.000511088 -0.244744 0.000167596)
(0.000903603 -0.246202 0.000387062)
(0.00135678 -0.245123 0.000633274)
(0.00190557 -0.241986 0.000896185)
(0.00253758 -0.237106 0.00118361)
(0.00325167 -0.230688 0.00149957)
(0.00403357 -0.222863 0.00184067)
(0.00486445 -0.213742 0.00219847)
(0.00572173 -0.203433 0.00255618)
(0.00657872 -0.192048 0.0028776)
(0.00740321 -0.179722 0.00310467)
(0.00817546 -0.166622 0.00317144)
(0.00885416 -0.15288 0.00309363)
(0.00940447 -0.13858 0.00282747)
(0.009919 -0.123807 0.00225543)
(0.0102644 -0.108625 0.0014894)
(0.0105164 -0.0933215 0.000386157)
(0.0107029 -0.0781873 -0.00115198)
(0.0107499 -0.0635851 -0.00309385)
(0.0106862 -0.0496898 -0.00501514)
(0.0104182 -0.0366685 -0.00678744)
(0.00992625 -0.0237473 -0.00828905)
(0.00916908 -0.00930659 -0.00944421)
(0.00827409 0.00814172 -0.0101917)
(0.00737297 0.0264335 -0.0100154)
(0.00589105 0.0582176 -0.0075137)
(0.004309 0.101098 -0.00168216)
(0.00277811 0.137875 0.00434469)
(0.00142931 0.146886 0.00657469)
(0.000377256 0.099204 0.00394235)
(-5.50715e-05 -0.0671573 0.000172711)
(1.08836e-05 -0.156025 -0.000900518)
(0.00042265 -0.205234 -0.00170205)
(0.00108661 -0.2296 -0.00205817)
(0.00179954 -0.241335 -0.00222595)
(0.002525 -0.246927 -0.0022169)
(0.00327947 -0.248985 -0.00215898)
(0.00404162 -0.248492 -0.00209558)
(0.00486456 -0.245848 -0.00202845)
(0.00570908 -0.241346 -0.0019405)
(0.00658911 -0.235185 -0.00182784)
(0.00749023 -0.227508 -0.00168382)
(0.00840004 -0.218433 -0.00149913)
(0.00930085 -0.208077 -0.00126759)
(0.0101722 -0.196565 -0.000997128)
(0.0109459 -0.184033 -0.000730939)
(0.0117322 -0.170632 -0.000684136)
(0.0122973 -0.15637 -0.000226837)
(0.0127921 -0.141423 0.000421054)
(0.0130491 -0.125913 0.00116717)
(0.013237 -0.110187 0.00161368)
(0.0133057 -0.0944222 0.00161122)
(0.0132301 -0.0787765 0.0011532)
(0.013007 -0.06346 0.000353892)
(0.0126823 -0.0486064 -0.000569559)
(0.0121434 -0.0341483 -0.00185003)
(0.0113915 -0.0192647 -0.00333368)
(0.0103238 -0.003148 -0.00488417)
(0.00943318 0.0116746 -0.00593631)
(0.00833274 0.0345472 -0.00666928)
(0.00672631 0.0675694 -0.00589736)
(0.00469708 0.109895 -0.00223814)
(0.00283161 0.144511 0.0023627)
(0.00134314 0.152163 0.00455134)
(0.000235241 0.102276 0.00302284)
(1.75555e-05 -0.0672174 -0.000727001)
(0.000561687 -0.157512 -0.00282821)
(0.00157227 -0.208431 -0.00393958)
(0.0027637 -0.233739 -0.00421341)
(0.00394885 -0.245647 -0.00414509)
(0.00507822 -0.2512 -0.00403162)
(0.0061755 -0.253138 -0.00396115)
(0.00717329 -0.252554 -0.00398495)
(0.00818501 -0.249807 -0.00411371)
(0.00913379 -0.245187 -0.00431489)
(0.0100634 -0.238883 -0.00457938)
(0.0109607 -0.231028 -0.0048896)
(0.0118219 -0.221712 -0.00521676)
(0.0126273 -0.211028 -0.00552952)
(0.0133644 -0.1991 -0.00580699)
(0.0140456 -0.185897 -0.00577315)
(0.0144684 -0.17163 -0.00483027)
(0.0148807 -0.156749 -0.00396912)
(0.0150986 -0.141333 -0.00314933)
(0.0151806 -0.125378 -0.00243454)
(0.015083 -0.10911 -0.0017313)
(0.0148199 -0.0927717 -0.00101205)
(0.0144349 -0.0764751 -0.000384976)
(0.0139388 -0.0603771 -3.45861e-05)
(0.0133081 -0.0445616 -8.72914e-05)
(0.0124941 -0.028883 -0.000549887)
(0.0114427 -0.0127005 -0.00138422)
(0.0103027 0.00433588 -0.00253083)
(0.00933635 0.019533 -0.00351087)
(0.00799147 0.0438299 -0.00432921)
(0.00643691 0.078409 -0.00418379)
(0.00442913 0.120629 -0.00190768)
(0.00256439 0.152728 0.0013134)
(0.00109777 0.158455 0.00310469)
(5.66798e-05 0.105279 0.00216379)
(7.17059e-05 -0.069196 -0.00152277)
(0.000954255 -0.162079 -0.00352745)
(0.00227881 -0.214025 -0.00427418)
(0.00364945 -0.239569 -0.00451126)
(0.00496462 -0.251496 -0.0046114)
(0.00620934 -0.256967 -0.00468308)
(0.00742261 -0.258744 -0.00475963)
(0.00849636 -0.257969 -0.00486276)
(0.00955545 -0.254933 -0.00503358)
(0.0105034 -0.249935 -0.00526506)
(0.0113886 -0.243152 -0.00557565)
(0.0121971 -0.234708 -0.00597594)
(0.0129528 -0.224665 -0.00645117)
(0.0135633 -0.213156 -0.0069798)
(0.0141293 -0.200162 -0.00726717)
(0.0145899 -0.186165 -0.00740214)
(0.0149513 -0.171233 -0.00776072)
(0.0151681 -0.155497 -0.00813231)
(0.0152486 -0.139125 -0.00827393)
(0.0151638 -0.122198 -0.00804062)
(0.0148869 -0.105077 -0.0074104)
(0.0144444 -0.0882444 -0.00648187)
(0.0138736 -0.0717846 -0.0054108)
(0.0132087 -0.0556097 -0.00436895)
(0.012457 -0.0393937 -0.00350147)
(0.0115915 -0.0225838 -0.00290499)
(0.0105321 -0.00524388 -0.00266205)
(0.00963904 0.00919706 -0.00273852)
(0.00859234 0.0271197 -0.0030295)
(0.00718699 0.0527484 -0.0033484)
(0.00566088 0.0881231 -0.00312335)
(0.00389999 0.130127 -0.00146548)
(0.00227481 0.160415 0.000839018)
(0.000971212 0.164532 0.00215662)
(2.88011e-05 0.107796 0.00138683)
(0.000116147 -0.0720396 -0.00168142)
(0.00110295 -0.167447 -0.0034267)
(0.00241696 -0.219773 -0.00411695)
(0.00370461 -0.245036 -0.00440286)
(0.0049261 -0.256657 -0.00456617)
(0.00607856 -0.261828 -0.00471563)
(0.00720196 -0.263267 -0.00488519)
(0.00819142 -0.26212 -0.00507935)
(0.00914752 -0.258614 -0.00534343)
(0.00999176 -0.253092 -0.00565642)
(0.0107655 -0.245745 -0.00604627)
(0.0113914 -0.236742 -0.00655207)
(0.0119216 -0.225977 -0.00711183)
(0.0124855 -0.213656 -0.00767571)
(0.0128596 -0.200151 -0.00842846)
(0.0131839 -0.185365 -0.00945912)
(0.0134394 -0.16944 -0.0105273)
(0.0135499 -0.152621 -0.0114805)
(0.0135249 -0.135143 -0.0121853)
(0.013355 -0.117143 -0.0124984)
(0.0130255 -0.0990329 -0.0123315)
(0.0125506 -0.0815233 -0.0117219)
(0.011956 -0.0646811 -0.0107627)
(0.0112705 -0.0483355 -0.00959597)
(0.0105173 -0.0321551 -0.00835777)
(0.00973463 -0.015738 -0.00715191)
(0.00893734 0.000988546 -0.00608494)
(0.0082094 0.0156401 -0.00539562)
(0.0072153 0.0354622 -0.00478694)
(0.00600747 0.0620902 -0.0041755)
(0.00466357 0.0979121 -0.00325554)
(0.0031821 0.139203 -0.00150251)
(0.00183166 0.167605 0.000435794)
(0.0007331 0.170126 0.00149433)
(-6.07291e-06 0.109443 0.000790619)
(0.000140639 -0.0750031 -0.00195428)
(0.00102776 -0.172383 -0.00377107)
(0.00217569 -0.224665 -0.00446797)
(0.00329579 -0.249487 -0.00478421)
(0.00435988 -0.260793 -0.00499039)
(0.00537568 -0.265721 -0.00518062)
(0.00637271 -0.266909 -0.00538531)
(0.00725848 -0.265462 -0.00560385)
(0.00810778 -0.261574 -0.00587568)
(0.00888012 -0.255582 -0.00617629)
(0.00941978 -0.247587 -0.00652636)
(0.0100771 -0.237567 -0.00696671)
(0.0104987 -0.2262 -0.0075049)
(0.0107988 -0.213417 -0.00820301)
(0.0110764 -0.199078 -0.00907594)
(0.0112209 -0.183299 -0.0100948)
(0.0112473 -0.166296 -0.0112368)
(0.0111788 -0.148363 -0.0124292)
(0.0110096 -0.129813 -0.013539)
(0.010748 -0.110875 -0.0143885)
(0.0103889 -0.0919079 -0.0148103)
(0.00994255 -0.0738602 -0.0147805)
(0.00942568 -0.0567929 -0.0143117)
(0.00886579 -0.0404699 -0.013485)
(0.0082907 -0.0245598 -0.0124075)
(0.0077258 -0.00876035 -0.0111916)
(0.00727061 0.00711151 -0.00988308)
(0.00680998 0.0218734 -0.00883483)
(0.00605988 0.0419899 -0.00763362)
(0.00510427 0.0693705 -0.00623227)
(0.00392353 0.106042 -0.00452239)
(0.00254375 0.147219 -0.00236949)
(0.0013596 0.173999 -0.000500864)
(0.000422935 0.174901 0.000359223)
(-0.000136368 0.110216 -0.000283125)
(0.000110411 -0.0773468 -0.00177179)
(0.000821575 -0.176106 -0.00321209)
(0.00176595 -0.228291 -0.00373951)
(0.00268415 -0.252716 -0.00407546)
(0.00356678 -0.2637 -0.00438099)
(0.0044237 -0.268347 -0.00468974)
(0.00527378 -0.269222 -0.00501722)
(0.00603978 -0.267385 -0.00534216)
(0.00680503 -0.263008 -0.00570325)
(0.00730845 -0.256472 -0.00605905)
(0.0079913 -0.247758 -0.0065229)
(0.00830454 -0.237453 -0.00693791)
(0.00865742 -0.22536 -0.00740934)
(0.00884073 -0.211548 -0.0079758)
(0.00888098 -0.196182 -0.00868069)
(0.00882326 -0.179451 -0.00957234)
(0.00869188 -0.161578 -0.0106735)
(0.00850532 -0.142841 -0.0119521)
(0.0082763 -0.123561 -0.0132998)
(0.00801188 -0.104026 -0.014537)
(0.00772017 -0.0845525 -0.0154501)
(0.00739537 -0.0661798 -0.0159573)
(0.00703799 -0.0490625 -0.0160167)
(0.00667015 -0.0330194 -0.0156705)
(0.00631759 -0.0177579 -0.0150094)
(0.00600471 -0.00283752 -0.0140729)
(0.00577714 0.0109867 -0.0131321)
(0.00547916 0.0277859 -0.0119563)
(0.00492983 0.0490065 -0.0104629)
(0.00413458 0.0774561 -0.00857133)
(0.0030647 0.114914 -0.00627319)
(0.00176108 0.155472 -0.00374965)
(0.00077237 0.179831 -0.00187303)
(6.51866e-05 0.178702 -0.000964592)
(-0.000221742 0.110202 -0.000876412)
(5.13936e-05 -0.0790207 -0.00158853)
(0.00055331 -0.178686 -0.00277862)
(0.00132146 -0.230853 -0.00317148)
(0.00208161 -0.255083 -0.00343793)
(0.00282281 -0.265914 -0.00372348)
(0.00355085 -0.270405 -0.00404835)
(0.00427852 -0.271058 -0.00442197)
(0.00495982 -0.268879 -0.00482579)
(0.0055637 -0.263983 -0.00530787)
(0.00621268 -0.256686 -0.00583983)
(0.00657068 -0.247506 -0.00618992)
(0.00692338 -0.236237 -0.00652173)
(0.00705656 -0.223085 -0.00684875)
(0.00703461 -0.208301 -0.00720931)
(0.00689603 -0.192134 -0.00766893)
(0.00668208 -0.174795 -0.00830999)
(0.00644133 -0.156461 -0.0092053)
(0.00620703 -0.137326 -0.0103815)
(0.00599265 -0.117654 -0.0117847)
(0.00579758 -0.0977643 -0.0132651)
(0.00562579 -0.0780684 -0.0146017)
(0.00545068 -0.0594421 -0.0156262)
(0.00525113 -0.0422425 -0.0162423)
(0.00503452 -0.0263765 -0.0164439)
(0.00482406 -0.0115325 -0.0162962)
(0.00467584 0.00293016 -0.0158009)
(0.00451635 0.0168469 -0.0150931)
(0.00421473 0.0339226 -0.014013)
(0.00376214 0.0558145 -0.0124575)
(0.00310363 0.0852163 -0.0103219)
(0.0022072 0.12321 -0.00766822)
(0.00115041 0.162649 -0.00492012)
(0.000412419 0.184298 -0.00309645)
(-4.44565e-05 0.181123 -0.00214462)
(-0.000183039 0.109637 -0.00150794)
(-5.30029e-06 -0.0796177 -0.0014479)
(0.000359812 -0.179972 -0.00249716)
(0.00108644 -0.232509 -0.00278538)
(0.00184705 -0.256752 -0.00303753)
(0.00258513 -0.267479 -0.00335559)
(0.00329915 -0.27182 -0.00373232)
(0.00399748 -0.272257 -0.0041767)
(0.00464517 -0.269774 -0.00466944)
(0.00525464 -0.264456 -0.00525297)
(0.00577226 -0.256592 -0.00585832)
(0.00616009 -0.2463 -0.00643845)
(0.00636663 -0.233834 -0.00695152)
(0.00638419 -0.219538 -0.00734693)
(0.0062463 -0.203823 -0.00760636)
(0.00599472 -0.18705 -0.00777782)
(0.00569347 -0.169446 -0.00797283)
(0.00540009 -0.151109 -0.00833235)
(0.00515503 -0.132091 -0.00898106)
(0.00497449 -0.112502 -0.00998051)
(0.0048532 -0.0925826 -0.0112874)
(0.0047759 -0.072738 -0.0127398)
(0.00470082 -0.0537479 -0.0141178)
(0.00458888 -0.0362132 -0.0152364)
(0.00443699 -0.0202059 -0.0159899)
(0.00425774 -0.00558382 -0.0163749)
(0.00411984 0.00781944 -0.0163602)
(0.00394274 0.0225373 -0.0159659)
(0.00362437 0.0402148 -0.0151088)
(0.00317617 0.0627688 -0.0136787)
(0.00256169 0.0928315 -0.0115459)
(0.00176142 0.130926 -0.00876374)
(0.000891704 0.168948 -0.005945)
(0.000353833 0.188178 -0.00416316)
(6.97354e-06 0.183364 -0.00312843)
(-0.000133922 0.109476 -0.00199877)
(-5.348e-05 -0.0798727 -0.00133568)
(0.000424024 -0.181568 -0.00199672)
(0.00138933 -0.235054 -0.00199598)
(0.00238755 -0.25944 -0.00221127)
(0.00333902 -0.269974 -0.00263185)
(0.00423705 -0.274027 -0.00316908)
(0.00508873 -0.274094 -0.00380623)
(0.00585225 -0.271148 -0.0045263)
(0.006532 -0.265119 -0.00542681)
(0.00708035 -0.25623 -0.00646769)
(0.00743242 -0.244664 -0.00755247)
(0.00760185 -0.23082 -0.00855147)
(0.0075494 -0.215275 -0.00929506)
(0.00732736 -0.198662 -0.0096669)
(0.00698917 -0.181448 -0.0096694)
(0.0066008 -0.163836 -0.00942293)
(0.00622252 -0.145808 -0.00911863)
(0.00589686 -0.127244 -0.00896403)
(0.00564653 -0.108058 -0.00913837)
(0.00546844 -0.0883217 -0.00974812)
(0.00533712 -0.0683537 -0.0107791)
(0.00520598 -0.0488833 -0.0120796)
(0.00501493 -0.0307502 -0.0134201)
(0.0047536 -0.014252 -0.0145744)
(0.00448662 0.000662148 -0.0154131)
(0.00422163 0.0141937 -0.0158058)
(0.00384694 0.0293738 -0.0157601)
(0.00338092 0.0473146 -0.0151843)
(0.00284741 0.0702373 -0.0139637)
(0.00223639 0.100651 -0.0119769)
(0.00154089 0.138394 -0.00929446)
(0.000858068 0.174565 -0.00658846)
(0.000404423 0.191571 -0.00489699)
(7.40915e-05 0.185436 -0.00377197)
(-0.000102045 0.10972 -0.00211373)
(-5.3821e-05 -0.0809483 -0.00127715)
(0.000748174 -0.185166 -0.0014053)
(0.00207615 -0.239954 -0.000963429)
(0.00337715 -0.264428 -0.000984556)
(0.00459394 -0.274586 -0.00138544)
(0.00575148 -0.278093 -0.00202094)
(0.00677608 -0.277564 -0.00277368)
(0.00770559 -0.273661 -0.00377801)
(0.00846135 -0.266561 -0.00504369)
(0.00898091 -0.256064 -0.00670172)
(0.00931438 -0.242775 -0.00854719)
(0.00938711 -0.227151 -0.0103602)
(0.00923559 -0.210018 -0.0118509)
(0.00889362 -0.192267 -0.0127848)
(0.00844307 -0.174472 -0.0130837)
(0.00795248 -0.156783 -0.012832)
(0.00747376 -0.139058 -0.0122174)
(0.00704203 -0.121027 -0.0114701)
(0.0066769 -0.102429 -0.0108228)
(0.00638342 -0.0831364 -0.0104852)
(0.00614471 -0.0632548 -0.0106045)
(0.00592192 -0.0433389 -0.0112167)
(0.00565774 -0.0243328 -0.0122131)
(0.00532591 -0.00711559 -0.0133414)
(0.00499893 0.00719137 -0.0142874)
(0.00460157 0.0215983 -0.0149564)
(0.0040527 0.0373256 -0.0152026)
(0.00341496 0.05548 -0.0148767)
(0.00273422 0.078321 -0.0138287)
(0.00209136 0.108367 -0.0119398)
(0.00154257 0.145196 -0.00932564)
(0.00108974 0.179549 -0.00673016)
(0.00078164 0.194933 -0.00511204)
(0.00052365 0.187989 -0.00393896)
(0.000142206 0.110943 -0.00208447)
(2.41399e-05 -0.0837981 -0.00116217)
(0.00114289 -0.191483 -0.000673916)
(0.00264213 -0.247176 0.000153407)
(0.00401004 -0.271349 0.000311903)
(0.00525662 -0.280901 -1.42192e-05)
(0.00644324 -0.283637 -0.000648836)
(0.00748647 -0.282214 -0.00145057)
(0.00827473 -0.277057 -0.0025849)
(0.00884216 -0.26788 -0.00438075)
(0.00936269 -0.255669 -0.00658501)
(0.00949566 -0.240218 -0.00908544)
(0.0093975 -0.222369 -0.0116848)
(0.00906919 -0.203384 -0.014008)
(0.00858683 -0.184451 -0.0157022)
(0.00805667 -0.166163 -0.0166059)
(0.00754367 -0.148515 -0.0167591)
(0.00708143 -0.131179 -0.0163208)
(0.00668433 -0.113734 -0.0154962)
(0.00635544 -0.0958004 -0.0145009)
(0.00609018 -0.0771224 -0.0135511)