/*--------------------------------*- C++ -*----------------------------------*\
| =========                 |                                                 |
| \\      /  F ield         | OpenFOAM: The Open Source CFD Toolbox           |
|  \\    /   O peration     | Version:  2.0.x                                 |
|   \\  /    A nd           | Web:      www.OpenFOAM.org                      |
|    \\/     M anipulation  |                                                 |
\*---------------------------------------------------------------------------*/
FoamFile
{
    version     2.0;
    format      ascii;
    class       volScalarField;
    location    "850";
    object      k;
}
// * * * * * * * * * * * * * * * * * * * * * * * * * * * * * * * * * * * * * //

dimensions      [0 2 -2 0 0 0 0];

internalField   nonuniform List<scalar> 
78750
(
8.09923e-06
0.000108865
0.000171819
0.000222201
0.000265842
0.0003042
0.000337692
0.000366613
0.000391492
0.000413432
0.00043286
0.000449618
0.000463418
0.000474637
0.000483094
0.000488891
0.000492343
0.00049731
0.00050157
0.000504207
0.000504285
0.000503159
0.000499759
0.000494655
0.000487985
0.000479594
0.000470762
0.000461341
0.000451111
0.000439636
0.000426342
0.000409285
0.000378632
0.000296624
4.46776e-05
6.5225e-06
0.00010867
0.000196959
0.000283946
0.000364943
0.000435328
0.00049487
0.000544164
0.000584374
0.000617432
0.000643502
0.000668501
0.000688733
0.000701794
0.000706847
0.000706004
0.000703173
0.000693843
0.000681673
0.000668202
0.000654255
0.000640517
0.000626914
0.000613379
0.000599752
0.000585653
0.000570212
0.000552793
0.000532559
0.00051106
0.000487021
0.00045698
0.000409289
0.000319277
0.000149934
1.23382e-05
0.000184386
0.000347384
0.000486922
0.000597476
0.000679426
0.000739147
0.00078117
0.000808906
0.000825238
0.000829118
0.00082347
0.000806253
0.000785192
0.000763985
0.000743445
0.000723835
0.000705102
0.000687203
0.000669981
0.000653276
0.000636975
0.000621046
0.000605348
0.000589149
0.00057345
0.000559043
0.00054456
0.000528883
0.000510293
0.000488282
0.000458438
0.000409064
0.000336807
0.000245131
3.04089e-05
0.000279917
0.000503904
0.00066075
0.000757637
0.000815062
0.000849167
0.00086717
0.000872179
0.000868432
0.000854685
0.000834095
0.000809493
0.000782866
0.000756514
0.000732486
0.000711476
0.000693165
0.000676397
0.000659528
0.000642217
0.000624038
0.000604176
0.000584092
0.000565528
0.000547454
0.000529971
0.000514407
0.000500796
0.00048928
0.0004752
0.000450749
0.000406913
0.000354024
0.000300713
7.08331e-05
0.000388513
0.000631009
0.000768898
0.000844826
0.000891343
0.000920649
0.000936031
0.00093828
0.000929491
0.000906884
0.000874171
0.000835894
0.000798659
0.000769715
0.000754645
0.000746992
0.000740913
0.000732384
0.000719744
0.00070264
0.000680477
0.000653078
0.00062282
0.000591684
0.000560528
0.000532091
0.000508152
0.000487633
0.000470876
0.000455215
0.000433724
0.000399508
0.000359282
0.000315219
0.00010071
0.000445601
0.000682728
0.00081523
0.000891118
0.000939292
0.00096952
0.000984258
0.000984044
0.000969877
0.000942947
0.000907155
0.00086647
0.000825725
0.000792122
0.000773539
0.000765304
0.000760774
0.000756446
0.000749407
0.000737363
0.000719307
0.000695981
0.000668702
0.000637088
0.00060069
0.000560914
0.000521811
0.000490074
0.000465411
0.000443408
0.000421572
0.00039405
0.00036132
0.000321421
0.000125662
0.000485174
0.000727921
0.000863768
0.000941871
0.000992372
0.00102531
0.00104322
0.00104673
0.00103636
0.00101292
0.000978046
0.000934752
0.000886466
0.000837845
0.00079667
0.000772177
0.000762074
0.00075767
0.000753953
0.00074781
0.000737705
0.000722857
0.000703222
0.000677856
0.000646027
0.000607972
0.000564581
0.000518411
0.000476242
0.000444223
0.000417204
0.000391204
0.000362414
0.000327352
0.000129501
0.000490717
0.000736598
0.00087885
0.000962548
0.0010178
0.00105524
0.00107775
0.00108589
0.00108095
0.00106351
0.00103507
0.000997568
0.000953633
0.000904918
0.000854079
0.000806625
0.000771038
0.000754259
0.000747239
0.000743766
0.000739725
0.000732368
0.000720351
0.000702357
0.000677409
0.000644498
0.000602779
0.000552699
0.000499085
0.000453498
0.000418279
0.00039182
0.000366109
0.00033997
0.000132791
0.000498564
0.000759098
0.000910587
0.000999981
0.00105951
0.00110092
0.00112753
0.00114015
0.00113966
0.00112642
0.00110137
0.00106628
0.0010235
0.00097608
0.000925419
0.000872717
0.000820805
0.000775344
0.000743921
0.000731208
0.000727194
0.000724631
0.000719664
0.000710149
0.000694229
0.000670004
0.000635447
0.000589113
0.000532013
0.000474868
0.000428978
0.000398008
0.000373757
0.000357627
0.000131136
0.000499641
0.000764479
0.000924085
0.00101934
0.00108286
0.00112755
0.00115721
0.00117312
0.00117568
0.001166
0.00114389
0.00111133
0.00107036
0.0010236
0.000974353
0.000923713
0.000872487
0.000822196
0.000775389
0.000737348
0.000716119
0.000708804
0.000706144
0.000702237
0.000693243
0.000676604
0.000650727
0.000611767
0.000558411
0.000497041
0.000444185
0.000409004
0.000385501
0.0003798
0.000140287
0.000518535
0.000794504
0.000960702
0.00105936
0.00112502
0.00117128
0.00120208
0.00121869
0.0012215
0.00121215
0.00118913
0.00115488
0.00111153
0.00106175
0.00100872
0.000955265
0.000902348
0.000850049
0.000799954
0.000755108
0.00072076
0.000700252
0.000691129
0.000687463
0.000682995
0.000673277
0.000653822
0.000623344
0.000576686
0.000516589
0.000461591
0.000424163
0.000401588
0.000404611
0.000154922
0.000534173
0.000816223
0.000986744
0.00108779
0.00115459
0.00120146
0.00123244
0.00124877
0.00125062
0.00123977
0.00121441
0.00117739
0.00113088
0.00107758
0.00102057
0.000963118
0.000906429
0.000851594
0.000799585
0.00075258
0.000716101
0.000692316
0.000678082
0.000671316
0.000668032
0.000662502
0.000650232
0.000625335
0.000586275
0.000531652
0.000477573
0.000440398
0.000419273
0.000426505
0.000185536
0.000574213
0.000855187
0.00102293
0.00112284
0.00118953
0.00123652
0.00126754
0.00128368
0.00128505
0.00127285
0.00124648
0.00120817
0.00115986
0.00110399
0.00104332
0.000980978
0.000918281
0.000856567
0.000797816
0.000745526
0.00070535
0.000680468
0.000665547
0.000657105
0.000653892
0.000650416
0.000642096
0.000624321
0.000591682
0.000543622
0.0004926
0.000457737
0.000437425
0.000438712
0.000212681
0.000594324
0.000867563
0.00103422
0.00113651
0.00120579
0.00125502
0.00128837
0.00130699
0.0013109
0.00130099
0.00127819
0.00124351
0.00119834
0.00114436
0.00108354
0.00101828
0.000949955
0.000879983
0.00081122
0.000748612
0.000699738
0.000669189
0.000652107
0.000643718
0.000641275
0.000640026
0.000634606
0.000620334
0.000592332
0.000551556
0.000505209
0.000473156
0.000451801
0.000438388
0.000221582
0.000598566
0.000870788
0.00103931
0.00114444
0.00121669
0.00126951
0.00130721
0.0013314
0.00134166
0.0013402
0.00132681
0.00130204
0.00126638
0.00122052
0.00116549
0.00110279
0.001034
0.000959735
0.000882065
0.000805317
0.000736728
0.000685423
0.000654723
0.000637734
0.000629186
0.000625589
0.000622817
0.000613647
0.000591591
0.000557728
0.000516594
0.000486694
0.000462063
0.000431453
0.000218299
0.000594815
0.000868866
0.00103884
0.00114556
0.00122065
0.00127656
0.00131798
0.00134691
0.00136447
0.00137012
0.00136573
0.00135105
0.00132612
0.00129096
0.00124585
0.0011915
0.00112916
0.00105923
0.000981926
0.000899036
0.000815375
0.000740447
0.000683801
0.000647165
0.000627762
0.000615828
0.000608206
0.000599538
0.000584859
0.000558931
0.000525567
0.00049832
0.000471131
0.000430816
0.000197212
0.000570111
0.000850319
0.00103196
0.00114617
0.00122523
0.00128427
0.00132893
0.00136174
0.00138405
0.00139669
0.00139963
0.00139363
0.00137826
0.00135309
0.00131784
0.00127263
0.00121813
0.00115572
0.00108504
0.00100592
0.000919569
0.000830528
0.000749658
0.000686883
0.000642866
0.000617962
0.000603582
0.000591627
0.000578913
0.000559585
0.000533097
0.000508085
0.000478905
0.000434284
0.000177801
0.000554708
0.000842451
0.00102881
0.00114677
0.00122884
0.00129022
0.00133725
0.00137294
0.0013989
0.00141604
0.001425
0.00142609
0.0014191
0.00140324
0.00137759
0.0013416
0.00129531
0.00123959
0.0011759
0.00110368
0.00102215
0.000931631
0.000839478
0.000757728
0.000689779
0.000640457
0.00060961
0.000592794
0.000578838
0.000562999
0.000541037
0.000518027
0.000489331
0.000451271
0.000174397
0.000553149
0.000842738
0.00103682
0.00115985
0.00124332
0.00130473
0.00135143
0.00138694
0.00141338
0.00143223
0.00144427
0.00145016
0.00144964
0.00144165
0.00142439
0.00139671
0.00135777
0.00130768
0.00124822
0.0011802
0.00110336
0.001017
0.00092515
0.000837202
0.000755849
0.000685769
0.000633767
0.000599691
0.000580852
0.000566846
0.000548769
0.00052807
0.000501498
0.000474077
0.000178983
0.000570169
0.000873322
0.00106824
0.00118917
0.00127011
0.00132895
0.00137322
0.0014065
0.00143125
0.00144954
0.00146278
0.00147236
0.00147793
0.0014772
0.00146744
0.0014467
0.0014136
0.00136803
0.00131115
0.00124383
0.00116678
0.00108104
0.000987709
0.000895043
0.000810197
0.000732631
0.000667506
0.000620303
0.00059184
0.000574633
0.000557974
0.000539442
0.000516514
0.000501092
0.000200121
0.000607507
0.000917431
0.00110717
0.00122139
0.0012978
0.00135302
0.00139378
0.00142373
0.00144578
0.00146358
0.00147925
0.00149527
0.00151079
0.00152029
0.00151923
0.00150724
0.00147946
0.00143529
0.00137711
0.00130776
0.00122815
0.00113761
0.00103773
0.000939548
0.000851934
0.000771333
0.000699445
0.000642786
0.000606049
0.00058453
0.000567871
0.00055118
0.000531701
0.000522872
0.00023424
0.000654205
0.00096331
0.0011445
0.0012516
0.00132361
0.00137579
0.00141331
0.00143953
0.00145779
0.00147001
0.00148588
0.00150634
0.00153101
0.00155676
0.00157493
0.00157615
0.00155909
0.00151725
0.00145462
0.0013774
0.00128907
0.00118933
0.00108074
0.000975117
0.000883118
0.00080102
0.000727239
0.000665972
0.000623722
0.000598193
0.000580672
0.000565277
0.000548334
0.000538663
0.000285139
0.000710243
0.00100827
0.00117582
0.00127435
0.00134141
0.00139023
0.00142442
0.0014459
0.00145996
0.00147382
0.00149023
0.00151175
0.00153549
0.00155983
0.00157857
0.00158756
0.00158468
0.00156966
0.00153288
0.00146766
0.00137421
0.00125821
0.00112924
0.00100606
0.000901002
0.000813653
0.000740785
0.000680902
0.000637985
0.000610877
0.000593014
0.000578274
0.000561109
0.000540039
0.00034089
0.000748706
0.0010277
0.00118661
0.00128218
0.00134825
0.00139581
0.00142775
0.00144627
0.00145619
0.00146092
0.00146894
0.00148524
0.00150884
0.00153667
0.00156254
0.00158035
0.00158517
0.00157382
0.00154648
0.00150108
0.00143515
0.00133975
0.00121618
0.00107322
0.000938023
0.00083046
0.000750306
0.000691706
0.000651539
0.000625145
0.000607211
0.000592351
0.000572775
0.000532899
0.000359066
0.000752353
0.00102858
0.00118717
0.00128333
0.00135114
0.00139893
0.00142981
0.00144634
0.00145268
0.00145178
0.00144435
0.00143652
0.00144017
0.0014537
0.00147692
0.00150373
0.00152549
0.00153574
0.00152926
0.00150113
0.00145136
0.00138099
0.00128445
0.0011569
0.00100788
0.000866795
0.000764439
0.000698392
0.000659769
0.000636239
0.000619661
0.000603976
0.000578213
0.000511411
0.000358516
0.000745989
0.00102122
0.00118128
0.00128052
0.00135134
0.00140543
0.00144174
0.00146071
0.00146393
0.00145677
0.00144254
0.00142527
0.00140445
0.0013903
0.00138631
0.00139803
0.00141692
0.00143815
0.00145191
0.00145052
0.00142822
0.00138149
0.00130856
0.00120731
0.00107396
0.000924284
0.000796718
0.000715238
0.000672181
0.000648695
0.000631943
0.000613837
0.000580349
0.000493903
0.000341385
0.000720391
0.000996968
0.00116367
0.00127011
0.00134761
0.00140568
0.00144961
0.00147712
0.00148719
0.0014823
0.00146365
0.00143506
0.0014031
0.00137416
0.0013494
0.00132388
0.00131416
0.00132389
0.00133888
0.00135197
0.0013533
0.00133565
0.00129311
0.00122055
0.00111443
0.000978349
0.000834736
0.000735123
0.000684829
0.00066062
0.000643274
0.000622417
0.000582465
0.000486904
0.000316242
0.000695547
0.000975586
0.00114821
0.00125923
0.00134099
0.00140488
0.00145448
0.0014898
0.00151135
0.00151816
0.00151157
0.00149053
0.00145544
0.00140904
0.00135744
0.0013099
0.00127114
0.00124107
0.00122634
0.00122707
0.00123745
0.00123973
0.00122584
0.00118655
0.00111607
0.00101208
0.000881208
0.0007665
0.000702648
0.000673077
0.000653698
0.000630234
0.000585785
0.00048811
0.000293669
0.000671139
0.000953153
0.00113174
0.00124806
0.00133419
0.0014023
0.00145537
0.0014944
0.00151977
0.00153179
0.00153246
0.00152202
0.00150037
0.00146686
0.001421
0.00136381
0.00130008
0.00123887
0.00118774
0.00115212
0.00112767
0.00111939
0.0011175
0.00110534
0.00107329
0.00100798
0.000907258
0.000798448
0.000726443
0.000689365
0.000665878
0.000639412
0.000591787
0.000496037
0.000283654
0.000659752
0.000941932
0.00112393
0.00124362
0.00133279
0.0014045
0.00146189
0.00150582
0.00153637
0.00155354
0.00155758
0.00154971
0.00153073
0.00150162
0.00146311
0.00141544
0.00135854
0.00129312
0.00122328
0.00115456
0.00109503
0.0010486
0.00102145
0.00101139
0.0010008
0.000972542
0.000906355
0.000816962
0.000746805
0.000705171
0.000677834
0.000648658
0.000599046
0.000507148
0.00027535
0.00064596
0.000928874
0.00111544
0.00123928
0.00133187
0.00140692
0.00146742
0.00151491
0.00154992
0.00157233
0.0015825
0.00158081
0.00156725
0.00154185
0.0015052
0.0014585
0.00140321
0.00134055
0.00127196
0.00119923
0.00112436
0.00105274
0.000992181
0.000949977
0.000932062
0.000921284
0.000889349
0.000823937
0.000765608
0.000722492
0.000691472
0.000659711
0.000608921
0.000521213
0.000268387
0.000634524
0.000918286
0.00111
0.00123853
0.00133456
0.00141175
0.00147488
0.00152544
0.00156379
0.00158983
0.00160389
0.00160652
0.00159818
0.0015782
0.00154658
0.00150366
0.00145027
0.0013875
0.00131728
0.00124226
0.00116321
0.00108237
0.00100512
0.000942594
0.000902334
0.000879545
0.000860614
0.000823501
0.00077872
0.000738491
0.000705434
0.000671616
0.000619868
0.000534489
0.000268215
0.000631711
0.000915022
0.00110887
0.00124044
0.00133907
0.00141921
0.00148562
0.00153977
0.00158207
0.00161242
0.00163084
0.00163809
0.00163411
0.00161789
0.00158886
0.0015477
0.00149607
0.00143431
0.00136379
0.00128637
0.00120299
0.00111541
0.00102829
0.000952928
0.000899388
0.000865011
0.000842732
0.000819069
0.000787797
0.000753206
0.000719934
0.000684752
0.000632085
0.000547854
0.000273407
0.000632719
0.000915851
0.00111111
0.00124423
0.00134513
0.00142753
0.00149609
0.00155256
0.00159767
0.00163165
0.00165437
0.0016661
0.00166667
0.00165634
0.00163304
0.00159662
0.00154693
0.00148471
0.00141314
0.00133321
0.00124565
0.00115169
0.00105586
0.000970046
0.0009056
0.000862184
0.000835279
0.000814387
0.000794234
0.000766036
0.000734096
0.000698529
0.000645607
0.000561715
0.000285281
0.000646209
0.000927573
0.00111952
0.0012513
0.00135291
0.00143722
0.00150833
0.00156758
0.00161554
0.00165235
0.00167783
0.00169252
0.00169668
0.0016904
0.00167235
0.00164196
0.00159843
0.00154117
0.00147032
0.00138754
0.00129496
0.00119326
0.00108746
0.000990526
0.000916398
0.00086523
0.000834284
0.000815551
0.000801008
0.000778147
0.000748238
0.000712793
0.000658787
0.000569123
0.000295628
0.000652422
0.000931498
0.00112194
0.00125368
0.00135629
0.00144217
0.00151561
0.00157778
0.00162916
0.00166988
0.00169975
0.00171925
0.00172867
0.00172787
0.00171615
0.00169231
0.00165524
0.00160385
0.00153736
0.00145549
0.0013581
0.00124697
0.00112923
0.00101839
0.000931747
0.000871283
0.000835444
0.000817524
0.000806851
0.000788745
0.000761398
0.000726244
0.000670017
0.000570986
0.000306873
0.000663525
0.000940544
0.00112765
0.00125617
0.00135881
0.00144704
0.00152249
0.00158658
0.00163935
0.00168081
0.001711
0.00173074
0.00174094
0.00174208
0.00173454
0.00171653
0.00168741
0.00164564
0.00158954
0.00151763
0.00142702
0.00131502
0.00118482
0.00105682
0.000954358
0.000882138
0.00083931
0.00082109
0.000813585
0.000799191
0.000773927
0.00073902
0.000680078
0.000571719
0.000320008
0.00067412
0.000946825
0.00112871
0.00125674
0.0013596
0.0014485
0.00152583
0.0015915
0.00164567
0.00168822
0.00171908
0.00173903
0.00174917
0.00175037
0.0017434
0.00172739
0.00170202
0.00166599
0.00161783
0.00155611
0.00147744
0.00137744
0.00125355
0.00111522
0.000989909
0.000898982
0.000847587
0.000827706
0.000822551
0.000810791
0.000786742
0.000751512
0.000689196
0.000570656
0.000330593
0.000680463
0.000949372
0.0011295
0.00125659
0.00135924
0.00144823
0.00152617
0.00159463
0.00165146
0.00169639
0.00172905
0.00174996
0.00176013
0.00176058
0.00175251
0.00173564
0.00171025
0.00167557
0.00163059
0.0015744
0.00150399
0.00141542
0.00130491
0.00117565
0.00104509
0.000931598
0.000860991
0.000836905
0.0008333
0.000823567
0.00079983
0.000763104
0.000697088
0.000570643
0.000337158
0.000684598
0.000949484
0.00112622
0.00125127
0.00135418
0.00144492
0.00152538
0.00159508
0.00165567
0.00170405
0.0017396
0.00176261
0.00177384
0.00177421
0.00176502
0.00174645
0.00171921
0.0016831
0.0016376
0.00158233
0.00151503
0.00143316
0.00133403
0.00121882
0.00109759
0.000979515
0.000892335
0.000855465
0.000847743
0.000837944
0.000814304
0.000776139
0.00070551
0.0005685
0.000340166
0.000686054
0.000948518
0.00112112
0.00124401
0.00134626
0.00143773
0.00152035
0.00159368
0.001656
0.00170873
0.0017485
0.00177526
0.00178944
0.0017917
0.00178317
0.00176416
0.00173563
0.00169768
0.0016501
0.00159235
0.0015224
0.00143842
0.00133952
0.00122911
0.00111756
0.00100999
0.000924864
0.000881439
0.000866988
0.000853575
0.000827852
0.000786138
0.000706498
0.000551719
0.000341885
0.000686895
0.000945935
0.00111538
0.00123641
0.00133768
0.00142908
0.00151282
0.00158871
0.00165538
0.00171091
0.00175469
0.00178542
0.00180319
0.00180841
0.00180202
0.00178445
0.00175681
0.00171953
0.00167265
0.0016152
0.00154455
0.00145779
0.00135335
0.00123611
0.00112041
0.00101649
0.000940822
0.000902829
0.000887263
0.00087051
0.000841763
0.000796175
0.000709656
0.000547972
0.000345742
0.00068991
0.00094512
0.00110992
0.00122816
0.00132795
0.0014192
0.00150413
0.00158233
0.00165209
0.00171117
0.00175986
0.00179494
0.0018166
0.00182511
0.00182121
0.00180549
0.00177928
0.00174353
0.00169903
0.00164521
0.00157972
0.00149896
0.00139927
0.00128301
0.00116066
0.00104335
0.000957307
0.000917136
0.000902281
0.000885167
0.000855149
0.000807158
0.000716268
0.000554936
0.000352311
0.000693816
0.00094461
0.00110489
0.00121994
0.00131775
0.0014082
0.00149365
0.00157378
0.00164674
0.00170992
0.00176093
0.0018011
0.00182683
0.00183846
0.00183671
0.00182245
0.00179691
0.00176152
0.00171781
0.00166627
0.00160527
0.00153279
0.00144542
0.001343
0.00122858
0.00110483
0.000999014
0.000940844
0.000918332
0.000899238
0.000868283
0.000819203
0.000727799
0.000573835
0.000361074
0.000698507
0.000943653
0.0010987
0.00120998
0.0013052
0.0013942
0.0014795
0.00156103
0.00163696
0.00170439
0.00176024
0.00180251
0.00183288
0.00184835
0.00184921
0.0018368
0.00181124
0.00177457
0.00172862
0.00167411
0.00161184
0.00154133
0.00146256
0.00137675
0.00127774
0.00116232
0.00105229
0.000980264
0.000945419
0.000919503
0.000885267
0.000833323
0.000737492
0.000575937
0.000368921
0.000701691
0.000941581
0.00109161
0.00119908
0.00129139
0.00137829
0.00146262
0.00154463
0.00162265
0.00169362
0.00175404
0.00180153
0.00183503
0.00185428
0.00185794
0.00184682
0.0018211
0.00178262
0.00173336
0.00167458
0.00160822
0.00153647
0.00146122
0.00138232
0.00129411
0.00119054
0.00108821
0.00101337
0.000970912
0.000938433
0.000899897
0.000843052
0.000739469
0.000567302
0.000376191
0.000702923
0.000938405
0.00108368
0.00118718
0.00127623
0.00136054
0.00144326
0.00152507
0.0016046
0.00167872
0.00174363
0.00179629
0.00183433
0.00185809
0.00186508
0.00185559
0.00182985
0.0017891
0.00173463
0.00166782
0.00159108
0.00151174
0.00143404
0.00136167
0.00128519
0.00119805
0.00111184
0.00104494
0.000999503
0.000960779
0.000916612
0.000853369
0.000738082
0.000542131
0.000378026
0.000703026
0.000934062
0.00107485
0.00117434
0.00125976
0.00134066
0.00142057
0.00150085
0.00158083
0.00165765
0.00172719
0.00178569
0.00183014
0.00185837
0.00187136
0.00186602
0.00184229
0.00180069
0.00174139
0.00166551
0.00157659
0.0014796
0.00138971
0.00131679
0.00125325
0.00118799
0.00112165
0.00106192
0.00101724
0.000975223
0.000927395
0.000857333
0.000727948
0.000514218
0.000377277
0.000699223
0.000927569
0.00106509
0.00116094
0.00124281
0.00131985
0.00139584
0.0014729
0.00155143
0.00162946
0.00170308
0.00176794
0.00182026
0.00185729
0.00187729
0.00187992
0.00186237
0.00182424
0.00176393
0.00168114
0.00157835
0.00146384
0.00135229
0.00126622
0.0012082
0.00116234
0.00111811
0.00107451
0.00103139
0.000987652
0.000936709
0.000861806
0.000722775
0.00049595
0.000370402
0.000693658
0.00092049
0.00105523
0.00114789
0.00122638
0.00129937
0.00137067
0.00144296
0.00151785
0.00159475
0.00167062
0.00174081
0.00180068
0.00184669
0.00187647
0.00189006
0.00188553
0.00185798
0.00180555
0.00172569
0.00161824
0.00148852
0.00135176
0.00123756
0.00116358
0.00112502
0.00110151
0.00107413
0.00103921
0.00099584
0.000944815
0.000868964
0.000725364
0.000495079
0.000362086
0.00068768
0.000913061
0.00104573
0.00113593
0.00121148
0.00128071
0.00134719
0.00141388
0.0014834
0.00155675
0.00163234
0.00170586
0.00177213
0.00182688
0.00186726
0.00189155
0.00190037
0.0018916
0.00185801
0.00179558
0.00170162
0.00157565
0.00142479
0.00127146
0.00116067
0.001098
0.00107459
0.00105945
0.00103781
0.000998092
0.000949095
0.000875899
0.0007339
0.000509716
0.000359107
0.000683583
0.000906528
0.00103732
0.00112563
0.00119866
0.00126472
0.00132669
0.0013876
0.0014507
0.00151849
0.00159115
0.00166529
0.00173545
0.00179669
0.00184579
0.00188108
0.00190085
0.00190435
0.00189199
0.00185851
0.00179704
0.00170183
0.00157543
0.00142125
0.00125061
0.00112093
0.00107548
0.00105713
0.00103873
0.00100767
0.000962029
0.000891881
0.000758876
0.000567554
0.000359376
0.000680054
0.000900328
0.0010297
0.00111682
0.00118807
0.00125136
0.00130923
0.0013646
0.00142108
0.00148187
0.00154886
0.00162079
0.00169208
0.00175682
0.00181103
0.00185298
0.00188146
0.00189592
0.00189546
0.00187907
0.00184364
0.00178731
0.00170463
0.00158965
0.00143519
0.00126306
0.0011242
0.00106442
0.00103992
0.00101145
0.000971367
0.000909453
0.000792928
0.000630622
0.000367209
0.000677983
0.000894353
0.00102263
0.00110904
0.00117915
0.00124035
0.00129485
0.0013448
0.0013939
0.00144685
0.00150686
0.00157358
0.00164339
0.00170916
0.00176547
0.00180971
0.00184073
0.00185908
0.00186587
0.0018618
0.00184545
0.00181484
0.00176598
0.00168919
0.00157054
0.00140926
0.00123997
0.0011219
0.00106324
0.00102585
0.000984877
0.000925122
0.000815078
0.000642101
0.000374523
0.000674794
0.00088772
0.00101551
0.00110189
0.00117147
0.00123132
0.00128346
0.00132933
0.00137209
0.00141565
0.00146589
0.00152518
0.00159068
0.00165532
0.00171172
0.00175544
0.00178486
0.00180088
0.00180565
0.00180168
0.00179063
0.00177289
0.00174458
0.00169075
0.00159812
0.00146674
0.00131468
0.00118427
0.00110425
0.00105232
0.00100338
0.000937245
0.000814375
0.000616481
0.000375301
0.000667513
0.000879024
0.00100735
0.00109449
0.0011645
0.00122397
0.00127438
0.0013168
0.00135352
0.00138918
0.00142974
0.00147919
0.00153719
0.00159875
0.00165435
0.00169663
0.00172245
0.00173231
0.0017289
0.00171572
0.00169714
0.00167743
0.00165833
0.00162781
0.00156423
0.00145593
0.00132354
0.00120611
0.0011256
0.00106791
0.0010131
0.000936724
0.000795624
0.000535861
0.000368066
0.000655392
0.000867371
0.000997116
0.00108596
0.00115758
0.00121838
0.00126928
0.00131054
0.00134347
0.00137129
0.00140059
0.00143757
0.00148661
0.00154327
0.00159893
0.00164214
0.00166701
0.00167192
0.00165873
0.00163296
0.00160012
0.00156805
0.00154328
0.00151883
0.00147572
0.00140307
0.00131001
0.00121591
0.00114113
0.00108088
0.00101939
0.000930801
0.000762177
0.000482337
0.000352514
0.000641162
0.0008546
0.000985979
0.00107668
0.00115043
0.00121347
0.00126639
0.00130927
0.00134184
0.00136589
0.00138393
0.00140674
0.00144342
0.00149264
0.00154801
0.00159654
0.00162774
0.00163671
0.0016244
0.00159137
0.00154259
0.00148707
0.00144275
0.00141905
0.00140113
0.0013652
0.00130101
0.00122178
0.00115175
0.00108721
0.00102251
0.000930797
0.000758682
0.000470274
0.000332864
0.000625529
0.000840442
0.00097386
0.00106683
0.00114312
0.00120889
0.00126459
0.00130929
0.00134299
0.00136642
0.00138253
0.00139703
0.00141574
0.00145225
0.00150294
0.00155649
0.00159932
0.00162095
0.00161897
0.00159113
0.00154098
0.00147433
0.00140112
0.00133843
0.00129841
0.00127889
0.00125363
0.00121014
0.0011522
0.00109045
0.00102582
0.000934203
0.000760654
0.000478265
0.000316622
0.0006121
0.000827415
0.000962657
0.00105792
0.00113667
0.00120528
0.00126443
0.00131333
0.00135062
0.00137593
0.00139026
0.0013982
0.00140838
0.00142697
0.0014647
0.00151645
0.00156951
0.00161115
0.00163256
0.0016298
0.00159998
0.00154218
0.00145977
0.00136715
0.00129569
0.00124522
0.00121835
0.00119156
0.00115302
0.00109809
0.00103629
0.0009499
0.000786616
0.000550513
0.000306271
0.000601084
0.000815539
0.000952591
0.00105007
0.00113125
0.00120253
0.00126481
0.00131689
0.00135753
0.00138598
0.00140191
0.00140774
0.00140954
0.00141642
0.00143767
0.00147825
0.00153145
0.00158524
0.00162899
0.00165522
0.00165923
0.00163765
0.00158299
0.0014954
0.001381
0.00127827
0.00122309
0.00118794
0.00115484
0.00110965
0.0010521
0.000971682
0.000829393
0.000634143
0.000303931
0.000593104
0.000806217
0.000944469
0.00104379
0.00112719
0.00120111
0.0012665
0.00132239
0.00136696
0.00139883
0.00141721
0.00142258
0.00142
0.00141668
0.00142101
0.00144539
0.00148873
0.00154303
0.0015975
0.00164266
0.00167231
0.00168288
0.0016684
0.00161679
0.001527
0.00140844
0.00128724
0.00120512
0.00115418
0.0011107
0.00106057
0.000990628
0.000866247
0.000684606
0.000304281
0.000586685
0.000798136
0.000937204
0.00103811
0.00112357
0.00119998
0.00126827
0.00132767
0.0013759
0.00141108
0.00143218
0.00143873
0.00143355
0.00142249
0.001415
0.00141773
0.00144395
0.00148867
0.00154283
0.00159609
0.00164187
0.0016747
0.00168494
0.00166958
0.00161664
0.00152142
0.0013969
0.00127722
0.00119074
0.00112885
0.00107402
0.00100592
0.000885435
0.000686398
0.000305347
0.000581526
0.000791261
0.000930815
0.001033
0.00112031
0.00119912
0.00127045
0.0013337
0.00138638
0.0014261
0.00145092
0.00145947
0.00145339
0.00143689
0.00141699
0.00140552
0.00140635
0.00143234
0.00147683
0.00152955
0.00158331
0.00163133
0.00166422
0.00166624
0.001629
0.00155626
0.00144614
0.00132406
0.0012237
0.00115004
0.00108858
0.00101489
0.000883199
0.000637085
0.000304251
0.000575301
0.000783703
0.000923689
0.00102701
0.00111604
0.00119712
0.00127103
0.00133833
0.00139542
0.00143997
0.0014699
0.0014833
0.00148005
0.00146256
0.00143547
0.0014073
0.00138948
0.00138739
0.00141099
0.00145366
0.00150766
0.00156153
0.00160515
0.00162629
0.00161366
0.00155302
0.00146278
0.00135084
0.00124856
0.00116878
0.00110035
0.00101556
0.000861536
0.000583275
0.000299729
0.000567907
0.000775711
0.000916105
0.00102037
0.00111094
0.00119428
0.00127132
0.00134247
0.00140432
0.00145423
0.0014899
0.00150942
0.00151173
0.0014979
0.00147056
0.00143508
0.00139871
0.00137418
0.00137016
0.00139215
0.00143516
0.00148543
0.00153233
0.0015646
0.00156982
0.00153821
0.00146327
0.00136922
0.00127303
0.00118993
0.00111459
0.00102048
0.000854485
0.000566408
0.000294897
0.000561625
0.000768656
0.000909074
0.00101405
0.00110605
0.00119157
0.00127151
0.00134636
0.00141275
0.00146784
0.00150931
0.00153525
0.00154432
0.00153652
0.00151351
0.00147816
0.00143471
0.00139156
0.00136284
0.00135889
0.00138195
0.00141976
0.00146178
0.00149797
0.00151661
0.00150637
0.00145888
0.00137981
0.00129128
0.00120786
0.00112897
0.00102947
0.000855056
0.00056638
0.000290153
0.000555291
0.000761308
0.000901576
0.00100718
0.00110063
0.0011884
0.00127158
0.00134998
0.0014207
0.00148067
0.00152755
0.00155953
0.00157538
0.00157446
0.00155806
0.00152804
0.00148578
0.00143681
0.00139184
0.00136528
0.0013655
0.00138302
0.00141162
0.00144214
0.00146564
0.00146984
0.00144284
0.00138336
0.00130518
0.00122442
0.00114436
0.00104246
0.000864908
0.000585745
0.000287455
0.000550569
0.00075507
0.00089449
0.00100031
0.00109497
0.0011849
0.00127104
0.00135326
0.00142815
0.00149265
0.00154444
0.00158171
0.0016033
0.0016087
0.00159853
0.00157414
0.00153625
0.00148839
0.00143807
0.00139857
0.00138088
0.0013823
0.00139383
0.00141174
0.00143074
0.00144085
0.00142822
0.00138391
0.00131643
0.00123937
0.00115968
0.00105837
0.000883399
0.000613164
0.000286317
0.000546486
0.000748863
0.00088697
0.000992706
0.00108841
0.00118037
0.00126937
0.00135471
0.00143418
0.00150326
0.00155979
0.00160202
0.00162885
0.00163983
0.0016349
0.00161512
0.0015808
0.00153452
0.00148347
0.00143886
0.00141178
0.00139935
0.00139952
0.00140657
0.00141623
0.00142279
0.00141631
0.00138348
0.00132501
0.00125261
0.00117515
0.00107579
0.000903667
0.000634434
0.000285749
0.000542782
0.000742563
0.00087893
0.000984245
0.00108073
0.0011746
0.00126656
0.00135573
0.00143915
0.00151249
0.00157358
0.00162063
0.00165248
0.00166874
0.00166853
0.00165291
0.00162155
0.00157668
0.00152434
0.00147605
0.00144341
0.00142476
0.00141676
0.00141519
0.0014192
0.00142206
0.00141375
0.00138423
0.00133137
0.00126327
0.00118842
0.00109055
0.000918822
0.000639608
0.000285155
0.000539227
0.000736004
0.000870151
0.000974687
0.00107176
0.00116753
0.00126273
0.00135473
0.00144065
0.00151899
0.00158471
0.00163651
0.00167337
0.00169477
0.00169945
0.00168761
0.00165847
0.00161372
0.00155897
0.00150573
0.00146684
0.00144248
0.00142994
0.00142507
0.00142514
0.00142524
0.0014162
0.0013882
0.00133802
0.00127289
0.00119986
0.00110195
0.000926786
0.000636028
0.000283297
0.000534927
0.000728628
0.000860345
0.00096374
0.00106089
0.00115797
0.0012558
0.00135115
0.00144042
0.0015207
0.00159178
0.00164867
0.00169097
0.0017182
0.00172905
0.00172255
0.00169762
0.00165442
0.00159722
0.0015373
0.00148836
0.00145409
0.00143462
0.00142645
0.00142576
0.00142614
0.00141776
0.00139133
0.00134367
0.00128109
0.00120948
0.00111156
0.000933457
0.000631549
0.000282181
0.000531193
0.000721308
0.000850213
0.000952147
0.00104905
0.0011472
0.00124652
0.00134407
0.00143657
0.00152072
0.00159363
0.00165559
0.00170332
0.00173653
0.00175396
0.00175451
0.00173768
0.0017014
0.00164806
0.00158661
0.00152861
0.00148013
0.0014466
0.00142928
0.00142589