/*--------------------------------*- C++ -*----------------------------------*\
| =========                 |                                                 |
| \\      /  F ield         | OpenFOAM: The Open Source CFD Toolbox           |
|  \\    /   O peration     | Version:  2.0.x                                 |
|   \\  /    A nd           | Web:      www.OpenFOAM.org                      |
|    \\/     M anipulation  |                                                 |
\*---------------------------------------------------------------------------*/
FoamFile
{
    version     2.0;
    format      ascii;
    class       volScalarField;
    location    "850";
    object      mut;
}
// * * * * * * * * * * * * * * * * * * * * * * * * * * * * * * * * * * * * * //

dimensions      [1 -1 -1 0 0 0 0];

internalField   nonuniform List<scalar> 
78750
(
9.66449e-09
2.05325e-05
3.02201e-05
3.33216e-05
3.37362e-05
3.329e-05
3.26726e-05
3.20889e-05
3.15568e-05
3.03394e-05
2.90278e-05
2.85551e-05
2.89856e-05
2.97631e-05
3.0636e-05
3.11527e-05
3.13282e-05
3.18636e-05
3.26889e-05
3.3645e-05
3.33223e-05
3.51028e-05
3.6676e-05
3.5583e-05
3.56578e-05
3.53415e-05
3.46577e-05
3.37924e-05
3.24111e-05
3.09166e-05
2.9386e-05
2.60822e-05
2.09425e-05
1.45403e-05
4.77443e-08
7.78884e-09
1.0706e-05
1.25742e-05
1.52353e-05
1.89846e-05
2.31385e-05
2.71333e-05
3.10338e-05
3.43656e-05
3.84586e-05
4.53538e-05
5.01665e-05
5.59349e-05
6.08481e-05
6.00624e-05
6.35312e-05
6.93249e-05
7.44104e-05
7.85818e-05
8.14476e-05
8.2599e-05
8.19638e-05
7.92027e-05
7.49556e-05
6.90185e-05
6.33051e-05
5.85078e-05
4.7235e-05
4.63216e-05
4.28777e-05
3.33698e-05
2.6625e-05
1.92279e-05
1.75448e-05
1.59959e-07
1.47312e-08
5.37722e-06
1.00258e-05
1.62462e-05
2.44528e-05
3.38297e-05
4.24976e-05
5.05147e-05
5.63092e-05
5.73667e-05
6.08642e-05
6.51931e-05
6.68934e-05
7.00861e-05
7.61608e-05
8.17496e-05
8.48979e-05
8.81767e-05
9.14037e-05
9.35256e-05
9.36101e-05
9.11029e-05
8.52571e-05
7.40006e-05
6.74723e-05
7.14814e-05
6.15902e-05
4.86402e-05
4.45747e-05
3.91993e-05
3.14846e-05
2.31149e-05
1.89124e-05
2.57457e-05
2.60994e-07
3.62911e-08
5.24195e-06
1.26784e-05
2.63994e-05
4.59765e-05
6.11324e-05
6.92241e-05
7.24756e-05
7.29145e-05
7.01114e-05
6.62398e-05
6.57252e-05
6.35459e-05
6.16686e-05
6.38995e-05
7.02898e-05
8.12652e-05
9.35816e-05
0.000102744
0.000102336
0.00010061
9.22166e-05
7.87124e-05
8.12646e-05
7.55918e-05
5.94508e-05
5.26539e-05
4.57745e-05
3.79352e-05
3.10681e-05
2.46406e-05
1.91579e-05
1.92561e-05
2.54346e-05
3.1943e-07
8.44829e-08
6.0377e-06
1.7215e-05
3.94361e-05
6.11189e-05
7.04598e-05
7.32879e-05
7.10804e-05
6.55042e-05
5.77702e-05
4.98816e-05
4.46639e-05
4.38447e-05
4.6944e-05
5.41895e-05
6.84435e-05
8.71384e-05
0.000102707
0.000109216
0.000108038
0.000102381
9.16269e-05
8.17916e-05
8.14087e-05
7.16471e-05
5.59547e-05
4.75949e-05
4.07359e-05
3.38415e-05
2.65515e-05
1.98587e-05
1.60141e-05
1.85756e-05
2.11734e-05
3.34215e-07
1.20071e-07
6.8097e-06
2.0229e-05
4.55975e-05
6.58253e-05
7.25676e-05
7.1963e-05
6.69491e-05
6.03213e-05
5.4011e-05
4.89018e-05
4.49776e-05
4.2695e-05
4.30499e-05
4.75327e-05
5.74963e-05
7.17204e-05
8.66156e-05
9.73929e-05
9.9723e-05
9.52899e-05
8.91734e-05
8.88398e-05
8.53198e-05
7.36882e-05
6.1928e-05
5.04472e-05
3.98547e-05
3.05699e-05
2.26573e-05
1.65715e-05
1.41499e-05
1.84113e-05
1.66856e-05
3.40216e-07
1.49781e-07
6.97945e-06
2.0447e-05
4.58641e-05
6.54648e-05
7.11908e-05
7.01892e-05
6.57615e-05
5.98893e-05
5.38915e-05
4.8492e-05
4.40401e-05
4.07542e-05
3.89568e-05
3.94446e-05
4.36382e-05
5.3586e-05
6.87368e-05
8.28986e-05
9.11388e-05
9.28626e-05
9.10894e-05
9.19757e-05
8.64829e-05
7.47383e-05
6.42698e-05
5.33877e-05
4.22215e-05
3.10642e-05
2.15304e-05
1.52157e-05
1.31536e-05
1.81279e-05
1.47515e-05
3.46134e-07
1.54352e-07
7.05189e-06
2.05229e-05
4.56361e-05
6.57714e-05
7.25022e-05
7.22824e-05
6.85237e-05
6.3251e-05
5.77983e-05
5.27523e-05
4.8265e-05
4.43396e-05
4.10985e-05
3.88361e-05
3.81785e-05
4.02689e-05
4.66998e-05
5.81501e-05
7.0513e-05
7.96813e-05
8.93811e-05
9.23402e-05
8.62223e-05
7.91804e-05
6.90902e-05
5.66333e-05
4.34613e-05
3.09974e-05
2.07653e-05
1.44284e-05
1.27247e-05
1.84861e-05
1.30458e-05
3.59147e-07
1.58279e-07
6.7831e-06
1.96323e-05
4.41187e-05
6.48383e-05
7.23728e-05
7.31495e-05
7.04207e-05
6.58631e-05
6.0601e-05
5.53492e-05
5.05322e-05
4.63366e-05
4.27823e-05
3.98892e-05
3.77306e-05
3.66368e-05
3.73679e-05
4.10529e-05
4.88895e-05
6.12589e-05
7.8326e-05
8.66697e-05
8.17181e-05
7.66091e-05
6.85863e-05
5.78611e-05
4.52646e-05
3.22444e-05
2.12178e-05
1.43819e-05
1.26106e-05
1.87719e-05
1.2228e-05
3.77563e-07
1.56321e-07
6.61585e-06
1.86844e-05
4.21338e-05
6.3975e-05
7.29362e-05
7.46993e-05
7.27047e-05
6.86758e-05
6.37363e-05
5.86457e-05
5.37558e-05
4.92944e-05
4.53328e-05
4.18847e-05
3.90155e-05
3.67669e-05
3.53054e-05
3.50943e-05
3.70209e-05
4.30384e-05
5.87464e-05
7.44481e-05
7.41418e-05
7.21384e-05
6.59179e-05
5.63395e-05
4.46382e-05
3.22138e-05
2.14446e-05
1.46248e-05
1.2992e-05
1.99034e-05
1.14339e-05
4.00723e-07
1.67222e-07
6.41256e-06
1.81557e-05
4.17337e-05
6.38905e-05
7.28966e-05
7.51516e-05
7.3813e-05
7.03114e-05
6.56489e-05
6.06804e-05
5.58378e-05
5.14747e-05
4.76366e-05
4.42114e-05
4.11072e-05
3.83247e-05
3.58844e-05
3.38587e-05
3.26548e-05
3.39191e-05
4.38999e-05
5.84258e-05
6.23209e-05
6.6086e-05
6.3413e-05
5.52288e-05
4.39984e-05
3.20308e-05
2.15611e-05
1.48743e-05
1.34584e-05
2.12179e-05
1.09894e-05
4.26692e-07
1.84648e-07
6.25364e-06
1.75929e-05
4.05687e-05
6.33579e-05
7.29424e-05
7.54605e-05
7.40896e-05
7.03892e-05
6.55405e-05
6.05537e-05
5.59138e-05
5.19699e-05
4.86874e-05
4.58295e-05
4.3122e-05
4.03971e-05
3.75267e-05
3.44821e-05
3.15467e-05
3.03572e-05
3.69027e-05
4.74544e-05
5.14048e-05
5.79451e-05
5.87611e-05
5.27733e-05
4.26055e-05
3.11736e-05
2.13285e-05
1.51184e-05
1.41531e-05
2.32455e-05
1.04592e-05
4.49561e-07
2.21071e-07
6.43111e-06
1.8203e-05
4.19017e-05
6.46717e-05
7.37409e-05
7.60642e-05
7.46651e-05
7.08852e-05
6.60145e-05
6.11035e-05
5.67206e-05
5.31577e-05
5.03337e-05
4.79291e-05
4.55579e-05
4.29302e-05
3.97641e-05
3.59672e-05
3.1964e-05
2.94379e-05
3.31002e-05
3.955e-05
4.26727e-05
4.88641e-05
5.20555e-05
4.85349e-05
4.00508e-05
2.9788e-05
2.07633e-05
1.51942e-05
1.48486e-05
2.56264e-05
9.98354e-06
4.62247e-07
2.53343e-07
6.64642e-06
1.88523e-05
4.15088e-05
6.28604e-05
7.32507e-05
7.56372e-05
7.34622e-05
6.93633e-05
6.47044e-05
6.04179e-05
5.69004e-05
5.4142e-05
5.19103e-05
4.98554e-05
4.75988e-05
4.48534e-05
4.14053e-05
3.72682e-05
3.30299e-05
3.00916e-05
3.11625e-05
3.39757e-05
3.64651e-05
4.12133e-05
4.41001e-05
4.24568e-05
3.61708e-05
2.74995e-05
1.97148e-05
1.51191e-05
1.5674e-05
2.8524e-05
9.49283e-06
4.61756e-07
2.63917e-07
6.75686e-06
1.90288e-05
4.16837e-05
6.27229e-05
7.27625e-05
7.57814e-05
7.41971e-05
7.06455e-05
6.67131e-05
6.31508e-05
6.00615e-05
5.73787e-05
5.4965e-05
5.26471e-05
5.01899e-05
4.73349e-05
4.39212e-05
3.99081e-05
3.56286e-05
3.1808e-05
2.95194e-05
3.03438e-05
3.2467e-05
3.44354e-05
3.69602e-05
3.63694e-05
3.16923e-05
2.48819e-05
1.8528e-05
1.49368e-05
1.64446e-05
3.10538e-05
9.08845e-06
4.54363e-07
2.60013e-07
6.72041e-06
1.8847e-05
4.08991e-05
6.16718e-05
7.18008e-05
7.50123e-05
7.48357e-05
7.25213e-05
6.93186e-05
6.58228e-05
6.24204e-05
5.92578e-05
5.64131e-05
5.38594e-05
5.14348e-05
4.88851e-05
4.59678e-05
4.25095e-05
3.8505e-05
3.43212e-05
3.08587e-05
3.01041e-05
3.00871e-05
3.00278e-05
3.1534e-05
3.11762e-05
2.77125e-05
2.23546e-05
1.73602e-05
1.47386e-05
1.72364e-05
3.29408e-05
8.87402e-06
4.53616e-07
2.34955e-07
6.52666e-06
1.78025e-05
3.81574e-05
5.94275e-05
7.06037e-05
7.48705e-05
7.5514e-05
7.41701e-05
7.16686e-05
6.84445e-05
6.48049e-05
6.11929e-05
5.78383e-05
5.49011e-05
5.23401e-05
4.99483e-05
4.74195e-05
4.45364e-05
4.11002e-05
3.71248e-05
3.2998e-05
2.95644e-05
2.93557e-05
2.90772e-05
2.74636e-05
2.70699e-05
2.47141e-05
2.04543e-05
1.6416e-05
1.46179e-05
1.79751e-05
3.39763e-05
8.68412e-06
4.57198e-07
2.11879e-07
6.38947e-06
1.70501e-05
3.64925e-05
5.7487e-05
6.99072e-05
7.57094e-05
7.72406e-05
7.61507e-05
7.35641e-05
7.01962e-05
6.64977e-05
6.30028e-05
5.97385e-05
5.64805e-05
5.35981e-05
5.11575e-05
4.87587e-05
4.61737e-05
4.32696e-05
3.95571e-05
3.49317e-05
3.05123e-05
3.01879e-05
2.88555e-05
2.53752e-05
2.4379e-05
2.24119e-05
1.90648e-05
1.57283e-05
1.45169e-05
1.84921e-05
3.43503e-05
8.64837e-06
4.74994e-07
2.07833e-07
6.32882e-06
1.66932e-05
3.54192e-05
5.69248e-05
7.09639e-05
7.76872e-05
8.00756e-05
7.95779e-05
7.72996e-05
7.3668e-05
6.90894e-05
6.4789e-05
6.19424e-05
6.02974e-05
5.85608e-05
5.59785e-05
5.26477e-05
4.89004e-05
4.55119e-05
4.19007e-05
3.70892e-05
3.19571e-05
3.10204e-05
3.00628e-05
2.53117e-05
2.24346e-05
2.04604e-05
1.78026e-05
1.51643e-05
1.45036e-05
1.90288e-05
3.4519e-05
8.61483e-06
4.9888e-07
2.1329e-07
6.2651e-06
1.65138e-05
3.53719e-05
5.77972e-05
7.25556e-05
7.96992e-05
8.23166e-05
8.14548e-05
7.70893e-05
7.1358e-05
6.73452e-05
6.54062e-05
6.40312e-05
6.31561e-05
6.25492e-05
6.19232e-05
6.0756e-05
5.80872e-05
5.29882e-05
4.65832e-05
4.06662e-05
3.48156e-05
2.94198e-05
2.88426e-05
2.63603e-05
2.15958e-05
1.95292e-05
1.70858e-05
1.47949e-05
1.44604e-05
1.93502e-05
3.4651e-05
8.60443e-06
5.27173e-07
2.38419e-07
6.28848e-06
1.69079e-05
3.74846e-05
6.09832e-05
7.45588e-05
8.04448e-05
8.16609e-05
7.86462e-05
7.31265e-05
6.92457e-05
6.72395e-05
6.58838e-05
6.56785e-05
6.60206e-05
6.61172e-05
6.55227e-05
6.42409e-05
6.23237e-05
5.93217e-05
5.48071e-05
4.73179e-05
3.81323e-05
3.10106e-05
2.97156e-05
2.66007e-05
2.11695e-05
1.84516e-05
1.61214e-05
1.43072e-05
1.43824e-05
1.97184e-05
3.49623e-05
8.50854e-06
5.49937e-07
2.78957e-07
6.4089e-06
1.757e-05
3.99485e-05
6.36359e-05
7.51292e-05
7.91355e-05
7.71321e-05
7.25702e-05
6.89745e-05
6.54973e-05
6.3204e-05
6.34818e-05
6.61711e-05
7.00822e-05
7.35198e-05
7.50174e-05
7.40799e-05
7.07185e-05
6.58477e-05
6.02019e-05
5.29571e-05
4.36153e-05
3.48664e-05
3.16116e-05
2.66963e-05
2.05562e-05
1.76238e-05
1.54726e-05
1.39178e-05
1.43816e-05
2.0268e-05
3.54482e-05
8.41761e-06
5.66403e-07
3.39387e-07
6.70467e-06
1.89315e-05
4.37874e-05
6.65572e-05
7.50005e-05
7.53985e-05
7.31894e-05
6.99464e-05
6.50697e-05
6.08808e-05
5.98962e-05
6.23511e-05
6.74426e-05
7.38361e-05
7.9723e-05
8.34671e-05
8.43099e-05
8.21706e-05
7.69291e-05
6.96987e-05
6.07237e-05
4.97626e-05
3.93549e-05
3.36788e-05
2.67699e-05
2.01573e-05
1.68621e-05
1.47174e-05
1.34956e-05
1.43408e-05
2.08764e-05
3.58493e-05
8.22146e-06
5.67745e-07
4.05497e-07
7.10698e-06
2.11096e-05
4.83558e-05
6.84307e-05
7.52742e-05
7.5645e-05
7.17073e-05
6.50516e-05
5.99064e-05
5.79927e-05
5.89495e-05
6.25932e-05
6.84816e-05
7.5834e-05
8.26944e-05
8.7509e-05
8.91677e-05
8.72933e-05
8.25155e-05
7.67472e-05
6.96835e-05
5.93394e-05
4.72027e-05
3.6316e-05
2.75722e-05
2.02375e-05
1.59304e-05
1.39454e-05
1.30769e-05
1.43707e-05
2.17149e-05
3.59061e-05
8.0425e-06
5.60155e-07
4.2701e-07
7.24493e-06
2.15018e-05
4.88319e-05
6.88469e-05
7.44047e-05
7.18977e-05
6.70129e-05
6.35599e-05
6.09544e-05
5.93826e-05
5.91992e-05
6.05304e-05
6.37838e-05
6.88356e-05
7.53741e-05
8.21692e-05
8.62446e-05
8.64817e-05
8.34552e-05
7.94542e-05
7.47257e-05
6.69658e-05
5.54251e-05
4.13791e-05
2.9511e-05
2.06009e-05
1.54965e-05
1.32721e-05
1.26584e-05
1.44566e-05
2.27563e-05
3.56601e-05
7.82836e-06
5.37541e-07
4.26354e-07
7.23653e-06
2.1829e-05
4.98202e-05
6.7744e-05
7.18636e-05
7.15791e-05
6.94959e-05
6.64084e-05
6.37918e-05
6.17499e-05
6.03343e-05
5.97676e-05
6.02974e-05
6.25832e-05
6.64496e-05
7.08803e-05
7.56206e-05
7.98862e-05
8.08467e-05
7.97057e-05
7.72123e-05
7.1098e-05
6.03028e-05
4.59281e-05
3.25714e-05
2.19104e-05
1.55965e-05
1.29348e-05
1.24213e-05
1.46487e-05
2.38991e-05
3.49764e-05
7.66647e-06
5.19121e-07
4.06063e-07
7.12427e-06
2.14461e-05
4.73439e-05
6.48076e-05
7.10494e-05
7.22648e-05
7.11893e-05
6.93644e-05
6.72167e-05
6.4912e-05
6.24273e-05
5.99859e-05
5.80916e-05
5.73873e-05
5.81711e-05
6.0336e-05
6.37857e-05
6.72569e-05
7.07911e-05
7.42063e-05
7.50364e-05
7.14843e-05
6.24573e-05
4.87543e-05
3.52512e-05
2.37472e-05
1.62336e-05
1.28923e-05
1.2323e-05
1.49204e-05
2.49502e-05
3.46194e-05
7.60803e-06
5.11738e-07
3.76274e-07
6.98162e-06
2.03921e-05
4.45388e-05
6.29353e-05
6.99457e-05
7.16983e-05
7.12832e-05
6.99046e-05
6.82278e-05
6.63843e-05
6.44357e-05
6.22131e-05
5.96115e-05
5.6761e-05
5.41882e-05
5.27058e-05
5.28389e-05
5.478e-05
5.78504e-05
6.1296e-05
6.52337e-05
6.59971e-05
6.02333e-05
4.89307e-05
3.718e-05
2.55111e-05
1.72377e-05
1.3239e-05
1.23671e-05
1.50869e-05
2.56908e-05
3.42711e-05
7.58896e-06
5.12962e-07
3.49502e-07
6.80086e-06
1.95224e-05
4.2924e-05
6.23161e-05
7.0483e-05
7.28739e-05
7.23576e-05
7.09838e-05
6.90899e-05
6.70023e-05
6.49507e-05
6.29795e-05
6.10059e-05
5.88008e-05
5.61201e-05
5.29922e-05
4.99237e-05
4.78088e-05
4.74046e-05
4.91574e-05
5.17871e-05
5.35464e-05
5.2235e-05
4.768e-05
3.77061e-05
2.62175e-05
1.81257e-05
1.36768e-05
1.25805e-05
1.53967e-05
2.64882e-05
3.42581e-05
7.62118e-06
5.21226e-07
3.3762e-07
6.73551e-06
1.91295e-05
4.20587e-05
6.24437e-05
7.1876e-05
7.53087e-05
7.59232e-05
7.50916e-05
7.33897e-05
7.11114e-05
6.84499e-05
6.56601e-05
6.29347e-05
6.03608e-05
5.78096e-05
5.5014e-05
5.17698e-05
4.8208e-05
4.49731e-05
4.28116e-05
4.21279e-05
4.23055e-05
4.21889e-05
4.21152e-05
3.55761e-05
2.58152e-05
1.85727e-05
1.41336e-05
1.28929e-05
1.57666e-05
2.7207e-05
3.43212e-05
7.66849e-06
5.32825e-07
3.27772e-07
6.58354e-06
1.85855e-05
4.11926e-05
6.19992e-05
7.19868e-05
7.64447e-05
7.83906e-05
7.8404e-05
7.73439e-05
7.55933e-05
7.33328e-05
7.06825e-05
6.77045e-05
6.44687e-05
6.10906e-05
5.76381e-05
5.40547e-05
5.01992e-05
4.61462e-05
4.2287e-05
3.90005e-05
3.64455e-05
3.46495e-05
3.52347e-05
3.19546e-05
2.46266e-05
1.86806e-05
1.4481e-05
1.32522e-05
1.61633e-05
2.78314e-05
3.4568e-05
7.73541e-06
5.47514e-07
3.1951e-07
6.46269e-06
1.80849e-05
3.98149e-05
6.05448e-05
7.16841e-05
7.6817e-05
7.88002e-05
7.89951e-05
7.81976e-05
7.68977e-05
7.53052e-05
7.34927e-05
7.14219e-05
6.89239e-05
6.58758e-05
6.22239e-05
5.80232e-05
5.33817e-05
4.84574e-05
4.35219e-05
3.87586e-05
3.43625e-05
3.09213e-05
3.08145e-05
2.8432e-05
2.27478e-05
1.82122e-05
1.47179e-05
1.36297e-05
1.66511e-05
2.85379e-05
3.47546e-05
7.79004e-06
5.61368e-07
3.19307e-07
6.41267e-06
1.77569e-05
3.91366e-05
6.06204e-05
7.22601e-05
7.75432e-05
7.95378e-05
7.96667e-05
7.88113e-05
7.74577e-05
7.6009e-05
7.4584e-05
7.3192e-05
7.16568e-05
6.96272e-05
6.67124e-05
6.27174e-05
5.77663e-05
5.20459e-05
4.59163e-05
3.9797e-05
3.40134e-05
2.93866e-05
2.8461e-05
2.60461e-05
2.12149e-05
1.76517e-05
1.48154e-05
1.39706e-05
1.71198e-05
2.91686e-05
3.50784e-05
7.84763e-06
5.75319e-07
3.25472e-07
6.37668e-06
1.77908e-05
3.95763e-05
6.12663e-05
7.31171e-05
7.86684e-05
8.07035e-05
8.06113e-05
7.98097e-05
7.87927e-05
7.75527e-05
7.6238e-05
7.49685e-05
7.37721e-05
7.24165e-05
7.05753e-05
6.76089e-05
6.28667e-05
5.65179e-05
4.93314e-05
4.19565e-05
3.48409e-05
2.90772e-05
2.73531e-05
2.44061e-05
1.98629e-05
1.70117e-05
1.47398e-05
1.42281e-05
1.75716e-05
2.98597e-05
3.53366e-05
7.89709e-06
5.89787e-07
3.39559e-07
6.46316e-06
1.82169e-05
4.06757e-05
6.23368e-05
7.39742e-05
7.94993e-05
8.1611e-05
8.17022e-05
8.10867e-05
7.99909e-05
7.86791e-05
7.73558e-05
7.61667e-05
7.51327e-05
7.40527e-05
7.26106e-05
7.03405e-05
6.66795e-05
6.12289e-05
5.38169e-05
4.50973e-05
3.65039e-05
2.95639e-05
2.67348e-05
2.31584e-05
1.87716e-05
1.6323e-05
1.45999e-05
1.44874e-05
1.82111e-05
3.10385e-05
3.51793e-05
7.90215e-06
5.97476e-07
3.5183e-07
6.47731e-06
1.84364e-05
4.14866e-05
6.30403e-05
7.42441e-05
7.95267e-05
8.16241e-05
8.20757e-05
8.149e-05
8.04057e-05
7.92012e-05
7.81126e-05
7.72428e-05
7.6573e-05
7.59158e-05
7.48948e-05
7.29976e-05
6.96559e-05
6.45335e-05
5.75561e-05
4.87687e-05
3.91886e-05
3.09069e-05
2.67622e-05
2.22883e-05
1.78669e-05
1.56906e-05
1.44408e-05
1.47769e-05
1.90062e-05
3.24953e-05
3.48801e-05
7.89179e-06
5.99366e-07
3.65169e-07
6.56026e-06
1.88268e-05
4.24429e-05
6.38364e-05
7.45957e-05
7.96259e-05
8.17975e-05
8.21908e-05
8.15855e-05
8.06452e-05
7.9705e-05
7.89346e-05
7.84193e-05
7.81288e-05
7.78906e-05
7.72582e-05
7.56795e-05
7.25367e-05
6.76768e-05
6.11656e-05
5.26107e-05
4.24746e-05
3.29622e-05
2.74454e-05
2.19942e-05
1.73307e-05
1.52005e-05
1.42763e-05
1.50143e-05
1.97431e-05
3.38937e-05
3.44617e-05
7.86642e-06
6.00078e-07
3.80738e-07
6.64733e-06
1.93015e-05
4.37008e-05
6.47296e-05
7.4769e-05
7.96607e-05
8.16012e-05
8.19859e-05
8.16247e-05
8.10517e-05
8.05047e-05
8.00775e-05
7.98281e-05
7.97448e-05
7.9676e-05
7.91872e-05
7.76654e-05
7.44625e-05
6.96604e-05
6.35834e-05
5.55604e-05
4.56523e-05
3.57666e-05
2.89692e-05
2.21445e-05
1.69974e-05
1.48449e-05
1.42032e-05
1.53749e-05
2.06978e-05
3.5542e-05
3.40208e-05
7.84209e-06
5.98911e-07
3.93278e-07
6.71051e-06
1.97591e-05
4.47745e-05
6.50411e-05
7.4759e-05
7.91269e-05
8.07244e-05
8.12026e-05
8.12011e-05
8.11191e-05
8.10615e-05
8.10171e-05
8.09863e-05
8.09606e-05
8.08404e-05
8.02544e-05
7.86161e-05
7.5298e-05
7.05186e-05
6.47574e-05
5.72318e-05
4.77489e-05
3.79805e-05
3.07341e-05
2.31008e-05
1.72057e-05
1.47014e-05
1.41974e-05
1.5718e-05
2.15736e-05
3.69779e-05
3.37383e-05
7.81376e-06
5.98863e-07
4.01056e-07
6.76718e-06
2.00452e-05
4.53592e-05
6.5401e-05
7.44115e-05
7.81974e-05
7.9594e-05
8.0135e-05
8.05594e-05
8.10164e-05
8.14968e-05
8.19013e-05
8.21576e-05
8.22176e-05
8.19932e-05
8.11762e-05
7.92629e-05
7.57212e-05
7.0885e-05
6.53346e-05
5.83038e-05
4.93485e-05
3.93961e-05
3.16721e-05
2.3803e-05
1.76481e-05
1.48369e-05
1.43031e-05
1.61612e-05
2.28075e-05
3.92377e-05
3.26581e-05
7.77667e-06
5.9656e-07
4.04615e-07
6.78924e-06
2.02344e-05
4.6076e-05
6.57469e-05
7.39307e-05
7.72876e-05
7.85265e-05
7.91879e-05
7.98237e-05
8.07777e-05
8.1834e-05
8.27868e-05
8.34732e-05
8.3777e-05
8.35805e-05
8.25991e-05
8.03935e-05
7.65191e-05
7.13809e-05
6.55869e-05
5.84575e-05
4.95411e-05
3.95008e-05
3.1113e-05
2.34088e-05
1.77853e-05
1.51468e-05
1.47646e-05
1.70503e-05
2.47354e-05
4.19537e-05
3.18623e-05
7.66873e-06
5.78932e-07
4.06644e-07
6.80224e-06
2.0386e-05
4.64826e-05
6.57215e-05
7.34017e-05
7.63005e-05
7.72094e-05
7.78408e-05
7.87633e-05
8.01188e-05
8.17587e-05
8.33315e-05
8.45643e-05
8.52522e-05
8.52211e-05
8.41824e-05
8.173e-05
7.74791e-05
7.19e-05
6.56605e-05
5.82534e-05
4.93762e-05
3.95333e-05
3.09122e-05
2.3135e-05
1.76814e-05
1.5291e-05
1.52587e-05
1.80342e-05
2.64003e-05
4.33144e-05
3.18372e-05
7.67843e-06
5.74979e-07
4.11209e-07
6.81985e-06
2.05522e-05
4.6965e-05
6.56469e-05
7.26632e-05
7.49248e-05
7.54345e-05
7.59963e-05
7.71688e-05
7.90408e-05
8.1423e-05
8.37719e-05
8.57164e-05
8.6967e-05
8.72873e-05
8.63672e-05
8.37911e-05
7.91783e-05
7.30447e-05
6.61719e-05
5.83024e-05
4.94827e-05
4.03133e-05
3.28193e-05
2.47292e-05
1.83171e-05
1.54925e-05
1.53911e-05
1.83189e-05
2.69976e-05
4.4381e-05
3.18244e-05
7.73858e-06
5.82255e-07
4.1899e-07
6.84778e-06
2.07494e-05
4.74661e-05
6.55334e-05
7.17551e-05
7.33084e-05
7.34978e-05
7.39592e-05
7.5427e-05
7.79275e-05
8.10486e-05
8.43463e-05
8.71611e-05
8.91158e-05
8.99266e-05
8.92775e-05
8.67362e-05
8.18882e-05
7.52125e-05
6.75506e-05
5.88253e-05
4.95566e-05
4.07155e-05
3.45644e-05
2.67647e-05
1.9589e-05
1.60821e-05
1.55528e-05
1.85043e-05
2.77007e-05
4.55408e-05
3.18504e-05
7.77688e-06
6.02002e-07
4.29366e-07
6.90272e-06
2.10105e-05
4.78411e-05
6.52432e-05
7.0708e-05
7.15821e-05
7.13207e-05
7.16895e-05
7.34708e-05
7.66454e-05
8.06699e-05
8.48398e-05
8.86495e-05
9.14629e-05
9.29058e-05
9.2656e-05
9.01915e-05
8.50719e-05
7.76641e-05
6.87312e-05
5.83945e-05
4.81708e-05
4.14505e-05
3.53208e-05
2.67682e-05
2.02e-05
1.68337e-05
1.63166e-05
1.96008e-05
2.9816e-05
4.78652e-05
3.09734e-05
7.736e-06
6.04137e-07
4.38658e-07
6.95117e-06
2.12506e-05
4.82252e-05
6.49073e-05
6.95346e-05
6.9711e-05
6.89276e-05
6.91057e-05
7.1097e-05
7.48625e-05
7.97634e-05
8.4963e-05
8.97303e-05
9.34917e-05
9.57095e-05
9.59676e-05
9.36999e-05
8.84057e-05
8.03904e-05
7.05757e-05
5.92945e-05
4.81903e-05
4.03067e-05
3.25838e-05
2.5311e-05
2.03477e-05
1.75096e-05
1.73459e-05
2.14052e-05
3.33352e-05
5.03721e-05
2.99476e-05
7.6795e-06
5.95017e-07
4.47264e-07
7.00249e-06
2.14487e-05
4.83894e-05
6.43455e-05
6.82328e-05
6.77295e-05
6.64193e-05
6.63542e-05
6.84491e-05
7.26701e-05
7.83408e-05
8.45189e-05
9.03037e-05
9.5068e-05
9.81416e-05
9.90028e-05
9.704e-05
9.16819e-05
8.30628e-05
7.21596e-05
5.94422e-05
4.68438e-05
3.70488e-05
2.94701e-05
2.39321e-05
2.02624e-05
1.82974e-05
1.89385e-05
2.41205e-05
3.76436e-05
5.23209e-05
2.89718e-05
7.58731e-06
5.68619e-07
4.49427e-07
7.02519e-06
2.15386e-05
4.83961e-05
6.36995e-05
6.69342e-05
6.57699e-05
6.38877e-05
6.34711e-05
6.54953e-05
6.99666e-05
7.62207e-05
8.32542e-05
9.00316e-05
9.56899e-05
9.96793e-05
0.000101243
9.97105e-05
9.44664e-05
8.54135e-05
7.35391e-05
5.96076e-05
4.60853e-05
3.45156e-05
2.67967e-05
2.24592e-05
1.9917e-05
1.89635e-05
2.05022e-05
2.69562e-05
4.13749e-05
5.34251e-05
2.80084e-05
7.4626e-06
5.39372e-07
4.48532e-07
7.02624e-06
2.15051e-05
4.82124e-05
6.30241e-05
6.56767e-05
6.39342e-05
6.1511e-05
6.06338e-05
6.23256e-05
6.66998e-05
7.32156e-05
8.08959e-05
8.85943e-05
9.52766e-05
0.000100138
0.00010252
0.000101596
9.67693e-05
8.78787e-05
7.59231e-05
6.13657e-05
4.72423e-05
3.3754e-05
2.51273e-05
2.12466e-05
1.95331e-05
1.94136e-05
2.1665e-05
2.85644e-05
4.28975e-05
5.37901e-05
2.76805e-05
7.41535e-06
5.20248e-07
4.4038e-07
6.9881e-06
2.14143e-05
4.7977e-05
6.2341e-05
6.45257e-05
6.23246e-05
5.94246e-05
5.79888e-05
5.90737e-05
6.29414e-05
6.9272e-05
7.72447e-05
8.56802e-05
9.33389e-05
9.91911e-05
0.000102519
0.000102513
9.83028e-05
8.99312e-05
7.89149e-05
6.53921e-05
5.118e-05
3.59339e-05
2.53993e-05
2.05472e-05
1.87991e-05
1.91126e-05
2.17903e-05
2.87646e-05
4.24047e-05
5.40514e-05
2.83054e-05
7.47335e-06
5.19342e-07
4.30519e-07
6.93145e-06
2.12573e-05
4.77248e-05
6.17701e-05
6.3618e-05
6.11287e-05
5.7871e-05
5.58826e-05
5.6213e-05
5.92558e-05
6.49558e-05
7.27675e-05
8.16403e-05
9.02224e-05
9.72174e-05
0.000101533
0.000102381
9.90286e-05
9.13533e-05
8.14935e-05
7.00482e-05
5.71217e-05
4.20433e-05
2.92087e-05
2.17057e-05
1.83964e-05
1.81599e-05
2.05106e-05
2.67699e-05
4.00065e-05
5.34585e-05
2.91399e-05
7.60216e-06
5.34729e-07
4.26984e-07
6.90302e-06
2.12562e-05
4.75649e-05
6.12906e-05
6.2952e-05
6.03984e-05
5.69673e-05
5.44731e-05
5.39923e-05
5.61781e-05
6.108e-05
6.83506e-05
7.73398e-05
8.66932e-05
9.49516e-05
0.000100803
0.000102965
0.000100382
9.32629e-05
8.41506e-05
7.43673e-05
6.31755e-05
5.20999e-05
3.80811e-05
2.59961e-05
1.95727e-05
1.76111e-05
1.87533e-05
2.43177e-05
3.70545e-05
5.17773e-05
3.18608e-05
7.92146e-06
5.95309e-07
4.273e-07
6.88577e-06
2.13336e-05
4.75098e-05
6.08966e-05
6.25772e-05
6.01599e-05
5.67604e-05
5.40946e-05
5.29722e-05
5.38139e-05
5.74748e-05
6.41937e-05
7.3107e-05
8.31047e-05
9.26171e-05
0.000100102
0.000104006
0.000102846
9.60617e-05
8.58833e-05
7.50275e-05
6.82144e-05
6.01244e-05
4.58599e-05
3.21733e-05
2.29858e-05
1.83764e-05
1.82543e-05
2.2375e-05
3.25938e-05
5.02638e-05
3.35455e-05
8.12201e-06
6.61194e-07
4.36578e-07
6.93092e-06
2.15173e-05
4.74772e-05
6.05685e-05
6.24398e-05
6.03438e-05
5.70853e-05
5.42384e-05
5.24215e-05
5.25445e-05
5.50867e-05
6.04354e-05
6.87937e-05
7.92082e-05
8.99476e-05
9.92397e-05
0.000105144
0.000105648
9.95473e-05
8.88659e-05
7.71319e-05
6.99007e-05
5.9225e-05
4.64289e-05
3.61228e-05
2.67009e-05
2.0245e-05
1.8174e-05
2.15174e-05
3.40977e-05
5.36915e-05
3.13446e-05
8.04741e-06
6.73122e-07
4.45243e-07
7.00927e-06
2.17771e-05
4.74821e-05
6.03321e-05
6.25734e-05
6.09227e-05
5.79713e-05
5.50289e-05
5.27744e-05
5.19541e-05
5.31226e-05
5.69723e-05
6.42888e-05
7.45125e-05
8.61533e-05
9.71027e-05
0.000105075
0.00010762
0.000102922
9.20161e-05
7.73981e-05
6.44307e-05
5.15939e-05
4.09896e-05
3.30111e-05
2.60299e-05
2.13139e-05
2.05932e-05
2.64399e-05
4.248e-05
5.57008e-05
2.9898e-05
7.90391e-06
6.46154e-07
4.46159e-07
7.04806e-06
2.19541e-05
4.73523e-05
6.01258e-05
6.27106e-05
6.1485e-05
5.88468e-05
5.59442e-05
5.34971e-05
5.18418e-05
5.16866e-05
5.34502e-05
5.87659e-05
6.82156e-05
7.97394e-05
9.14886e-05
0.000100844
0.000104864
0.00010084
8.92173e-05
7.34397e-05
5.53715e-05
4.22059e-05
3.48419e-05
2.97968e-05
2.5634e-05
2.31385e-05
2.44152e-05
3.22946e-05
4.86085e-05
5.62286e-05
2.7e-05
7.6438e-06
5.61747e-07
4.37585e-07
7.04266e-06
2.19053e-05
4.70681e-05
5.99148e-05
6.28667e-05
6.20933e-05
5.98835e-05
5.7295e-05
5.47738e-05
5.20595e-05
5.03829e-05
5.09281e-05
5.35653e-05
6.01597e-05
7.10031e-05
8.25987e-05
9.23803e-05
9.72722e-05
9.45151e-05
8.41048e-05
7.02347e-05
5.06205e-05
3.66764e-05
3.05096e-05
2.73895e-05
2.54171e-05
2.48914e-05
2.74735e-05
3.66501e-05
5.25789e-05
5.56706e-05
2.59938e-05
7.40954e-06
5.05763e-07
4.19152e-07
6.98679e-06
2.16874e-05
4.67269e-05
5.98222e-05
6.30962e-05
6.27305e-05
6.0951e-05
5.86326e-05
5.59209e-05
5.29529e-05
5.04145e-05
4.94332e-05
5.04257e-05
5.35982e-05
6.10567e-05
7.21714e-05
8.23281e-05
8.86383e-05
8.93814e-05
8.60501e-05
7.01569e-05
4.98271e-05
3.66164e-05
2.93523e-05
2.59541e-05
2.47167e-05
2.52685e-05
2.91203e-05
3.87156e-05
5.23216e-05
5.56644e-05
2.71379e-05
7.54956e-06
4.93155e-07
3.95858e-07
6.87937e-06
2.13451e-05
4.63472e-05
5.98539e-05
6.34457e-05
6.34299e-05
6.20259e-05
6.00408e-05
5.76507e-05
5.46056e-05
5.12573e-05
4.86885e-05
4.78975e-05
4.97619e-05
5.39111e-05
6.14012e-05
7.19594e-05
8.04812e-05
8.37134e-05
8.29211e-05
7.26553e-05
5.59732e-05
4.12391e-05
3.08935e-05
2.52622e-05
2.33825e-05
2.42128e-05
2.79155e-05
3.59265e-05
4.83562e-05
5.62786e-05
2.8255e-05
7.63905e-06
5.01604e-07
3.76597e-07
6.77408e-06
2.10752e-05
4.61193e-05
6.00085e-05
6.39282e-05
6.42771e-05
6.32831e-05
6.17595e-05
5.98408e-05
5.72161e-05
5.38424e-05
5.01818e-05
4.72727e-05
4.6539e-05
4.93201e-05
5.53678e-05
6.31235e-05
7.14106e-05
7.79788e-05
8.03056e-05
7.70223e-05
6.61912e-05
5.10552e-05
3.80189e-05
2.92507e-05
2.43636e-05
2.30316e-05
2.4726e-05
3.03077e-05
4.26293e-05
5.54183e-05
3.26984e-05
8.12892e-06
5.77408e-07
3.64317e-07
6.694e-06
2.09094e-05
4.59757e-05
6.01811e-05
6.44769e-05
6.52606e-05
6.47366e-05
6.36968e-05
6.22855e-05
6.01095e-05
5.69421e-05
5.30266e-05
4.91143e-05
4.63987e-05
4.62817e-05
4.97729e-05
5.67208e-05
6.51598e-05
7.27419e-05
8.01169e-05
8.01276e-05
7.1678e-05
6.11732e-05
4.80726e-05
3.61233e-05
2.77922e-05
2.34242e-05
2.26536e-05
2.68248e-05
3.77668e-05
5.24753e-05
3.74236e-05
8.63093e-06
6.64932e-07
3.61541e-07
6.66821e-06
2.09365e-05
4.60518e-05
6.04295e-05
6.50878e-05
6.63224e-05
6.6267e-05
6.56988e-05
6.47962e-05
6.34071e-05
6.05848e-05
5.65338e-05
5.20881e-05
4.80792e-05
4.5908e-05
4.69002e-05
5.14925e-05
5.88895e-05
6.72213e-05
7.70002e-05
7.85087e-05
7.09696e-05
6.41286e-05
5.54639e-05
4.38238e-05
3.25108e-05
2.5077e-05
2.25313e-05
2.41439e-05
3.22703e-05
5.14535e-05
3.76378e-05
8.69076e-06
7.17621e-07
3.61954e-07
6.66901e-06
2.10612e-05
4.62402e-05
6.07362e-05
6.5748e-05
6.74024e-05
6.77839e-05
6.76547e-05
6.7011e-05
6.58709e-05
6.44168e-05
6.12854e-05
5.6008e-05
5.07288e-05
4.69871e-05
4.57467e-05
4.80894e-05
5.37611e-05
6.14283e-05
7.1041e-05
7.3093e-05
6.68397e-05
6.0925e-05
5.38834e-05
4.54096e-05
3.58085e-05
2.73023e-05
2.26027e-05
2.41409e-05
3.57448e-05
5.61021e-05
3.47841e-05
8.61605e-06
7.19338e-07
3.63214e-07
6.68954e-06
2.1225e-05
4.65117e-05
6.10583e-05
6.63085e-05
6.82522e-05
6.89362e-05
6.92082e-05
6.92294e-05
6.87401e-05
6.7186e-05
6.41224e-05
5.9815e-05
5.4319e-05
4.89914e-05
4.58345e-05
4.57288e-05
4.92021e-05
5.52862e-05
6.25957e-05
6.46443e-05
6.0363e-05
5.48202e-05
4.81529e-05
4.08941e-05
3.36305e-05
2.76345e-05
2.52243e-05
2.91346e-05
4.30678e-05
5.83163e-05
3.2487e-05
8.41924e-06
6.67628e-07
3.61907e-07
6.70503e-06
2.13582e-05
4.68123e-05
6.13633e-05
6.66773e-05
6.872e-05
6.9543e-05
7.00799e-05
7.04589e-05
7.05039e-05
6.97463e-05
6.75268e-05
6.33288e-05
5.73316e-05
5.11622e-05
4.63649e-05
4.41169e-05
4.4991e-05
4.88175e-05
5.37775e-05
5.60375e-05
5.38037e-05
4.8929e-05
4.3191e-05
3.77128e-05
3.26245e-05
2.89967e-05
2.84315e-05
3.41873e-05
4.92491e-05
5.96659e-05
3.05474e-05
8.22109e-06
6.11282e-07
3.56539e-07
6.68785e-06
2.13861e-05
4.7054e-05
6.16661e-05
6.69765e-05
6.90277e-05
6.99358e-05
7.06635e-05
7.13535e-05
7.17897e-05
7.15143e-05
6.99367e-05
6.64931e-05
6.11152e-05
5.42702e-05
4.81208e-05
4.40277e-05
4.2626e-05
4.41631e-05
4.7509e-05
5.0036e-05
4.9266e-05
4.52881e-05
4.01671e-05
3.5528e-05
3.19928e-05
3.00371e-05
3.12075e-05
3.80133e-05
5.19119e-05
5.98978e-05
3.0412e-05
8.18614e-06
5.93624e-07
3.508e-07
6.66088e-06
2.14147e-05
4.73765e-05
6.197e-05
6.71456e-05
6.90753e-05
6.99658e-05
7.08409e-05
7.18768e-05
7.28507e-05
7.32644e-05
7.24164e-05
6.96208e-05
6.46757e-05
5.8188e-05
5.11776e-05
4.54968e-05
4.22628e-05
4.17047e-05
4.35536e-05
4.59879e-05
4.61303e-05
4.31985e-05
3.87599e-05
3.46517e-05
3.17778e-05
3.0452e-05
3.22817e-05
3.96435e-05
5.30173e-05
6.0464e-05
3.07301e-05
8.19993e-06
5.93594e-07
3.45165e-07
6.6202e-06
2.13988e-05
4.76218e-05
6.21716e-05
6.71862e-05
6.89754e-05
6.9861e-05
7.08661e-05
7.22089e-05
7.36572e-05
7.47132e-05
7.46682e-05
7.27345e-05
6.84305e-05
6.21067e-05
5.49513e-05
4.83235e-05
4.34867e-05
4.13171e-05
4.21799e-05
4.39769e-05
4.40368e-05
4.19895e-05
3.80879e-05
3.40589e-05
3.11545e-05
3.04548e-05
3.28652e-05
4.01755e-05
5.35483e-05
6.1023e-05
3.18317e-05
8.35992e-06
6.13874e-07
3.41958e-07
6.59521e-06
2.1469e-05
4.79689e-05
6.23354e-05
6.71019e-05
6.87025e-05
6.95582e-05
7.07246e-05
7.23994e-05
7.43481e-05
7.60661e-05
7.68263e-05
7.5772e-05
7.22398e-05
6.62829e-05
5.89168e-05
5.15873e-05
4.57277e-05
4.23268e-05
4.23533e-05
4.3249e-05
4.29243e-05
4.15558e-05
3.81736e-05
3.40643e-05
3.09545e-05
3.03071e-05
3.28453e-05
3.97869e-05
5.21058e-05
6.10846e-05
3.31294e-05
8.51295e-06
6.42563e-07
3.40601e-07
6.57638e-06
2.15662e-05
4.82983e-05
6.23534e-05
6.68016e-05
6.81844e-05
6.90023e-05
7.02982e-05
7.23392e-05
7.481e-05
7.72035e-05
7.87774e-05
7.86363e-05
7.59869e-05
7.05865e-05
6.31963e-05
5.52763e-05
4.83791e-05
4.38875e-05
4.30873e-05
4.30724e-05
4.21711e-05
4.11971e-05
3.84878e-05
3.46971e-05
3.13383e-05
3.02838e-05
3.21962e-05
3.8444e-05
5.12261e-05
6.15993e-05
3.3762e-05
8.62695e-06
6.64772e-07