/*--------------------------------*- C++ -*----------------------------------*\
| =========                 |                                                 |
| \\      /  F ield         | OpenFOAM: The Open Source CFD Toolbox           |
|  \\    /   O peration     | Version:  2.0.x                                 |
|   \\  /    A nd           | Web:      www.OpenFOAM.org                      |
|    \\/     M anipulation  |                                                 |
\*---------------------------------------------------------------------------*/
FoamFile
{
    version     2.0;
    format      ascii;
    class       volScalarField;
    location    "850";
    object      omega;
}
// * * * * * * * * * * * * * * * * * * * * * * * * * * * * * * * * * * * * * //

dimensions      [0 0 -1 0 0 0 0];

internalField   nonuniform List<scalar> 
78750
(
1019.72
4.83245
5.25027
5.5595
5.81176
6.02382
6.20324
6.35463
6.48258
6.59393
6.6913
6.77442
6.84239
6.89729
6.93873
6.96737
6.98459
7.00699
7.02693
7.03955
7.04084
7.0363
7.02112
6.99777
6.96684
6.92752
6.88529
6.84003
6.7906
6.7348
6.66977
6.58642
6.43784
6.02731
1089.35
1019.7
4.81236
5.38013
5.88684
6.32313
6.68009
6.96861
7.19944
7.38285
7.53119
7.64688
7.75699
7.84486
7.90214
7.92665
7.9271
7.91331
7.878
7.82938
7.77416
7.71575
7.65718
7.59856
7.53968
7.47992
7.41758
7.34896
7.27065
7.17825
7.07873
6.96604
6.82335
6.59564
6.15424
1090.17
1019.75
5.31434
6.24449
6.94298
7.45113
7.80746
8.05793
8.23036
8.34276
8.40899
8.42602
8.4047
8.33831
8.25577
8.17201
8.09018
8.01123
7.93503
7.86134
7.78957
7.71916
7.64951
7.58056
7.51179
7.43992
7.36939
7.30379
7.23725
7.16469
7.0781
6.97501
6.83478
6.60285
6.2578
1090.9
1019.9
5.87179
7.02003
7.72531
8.13224
8.36477
8.50021
8.57133
8.59187
8.57861
8.52688
8.44844
8.35366
8.25001
8.1466
8.05152
7.96742
7.89317
7.82385
7.75297
7.67928
7.60095
7.51406
7.42425
7.3399
7.25715
7.17613
7.10274
7.03777
6.98265
6.91616
6.80306
6.60084
6.35776
1091.33
1020.24
6.45983
7.60424
8.18441
8.48667
8.66643
8.77776
8.83574
8.84441
8.81201
8.72733
8.60378
8.45797
8.31554
8.20583
8.15065
8.12243
8.099
8.06382
8.01127
7.93977
7.84636
7.72926
7.59769
7.45993
7.31965
7.18859
7.07667
6.97903
6.8984
6.82401
6.72527
6.57065
6.39261
1091.45
1020.49
6.74548
7.82702
8.36942
8.66456
8.84679
8.95925
9.01356
9.01281
8.96001
8.85988
8.72557
8.57145
8.41664
8.29047
8.22451
8.19628
8.18011
8.16365
8.13485
8.08481
8.00929
7.91062
7.79417
7.65834
7.49931
7.32159
7.14177
6.9925
6.87487
6.77049
6.67085
6.54975
6.40984
1091.5
1020.7
6.9509
8.022
8.56285
8.85905
9.04553
9.16493
9.22892
9.24084
9.20278
9.11714
8.98876
8.82757
8.64529
8.4604
8.3054
8.2188
8.1844
8.16944
8.15518
8.12972
8.08724
8.02463
7.94171
7.8342
7.69783
7.53182
7.33824
7.12704
6.92911
6.77756
6.65325
6.5398
6.4195
1091.54
1020.73
6.96881
8.0565
8.62102
8.93607
9.13806
9.27232
9.35187
9.37998
9.36171
9.29895
9.19632
9.05967
8.89742
8.71455
8.52142
8.34142
8.21091
8.15261
8.12835
8.11583
8.0987
8.06727
8.0162
7.93998
7.83388
7.69252
7.51037
7.28633
7.03929
6.82557
6.66251
6.547
6.44207
1091.64
1020.77
7.01835
8.14946
8.74143
9.0728
9.28712
9.43338
9.5261
9.56947
9.56743
9.52115
9.43342
9.3094
9.15612
8.98335
8.79468
8.59435
8.39455
8.22071
8.10641
8.06137
8.04798
8.03805
8.01691
7.97642
7.90866
7.80515
7.65609
7.45262
7.19536
6.93102
6.7182
6.58112
6.48307
1091.78
1020.75
7.01631
8.16896
8.79069
9.14182
9.36895
9.5257
9.62846
9.68328
9.69234
9.65936
9.5838
9.47132
9.32798
9.1618
8.9832
8.79531
8.60029
8.40298
8.2191
8.07207
7.99457
7.96932
7.96025
7.94413
7.90566
7.83486
7.72374
7.55438
7.31762
7.03832
6.79528
6.63852
6.54428
1091.95
1020.82
7.0993
8.28613
8.9247
9.28335
9.51496
9.67515
9.78064
9.83752
9.84792
9.81743
9.74075
9.62512
9.47648
9.30275
9.11411
8.91987
8.72357
8.52701
8.33156
8.15146
8.01245
7.9301
7.89583
7.8823
7.8641
7.82253
7.73892
7.60686
7.40166
7.13173
6.88162
6.71518
6.62569
1092.14
1020.94
7.16636
8.36976
9.02012
9.38446
9.61809
9.77898
9.88434
9.94002
9.94747
9.91276
9.82938
9.70571
9.54772
9.3632
9.16163
8.9539
8.74402
8.53579
8.3333
8.14612
7.99695
7.89845
7.83956
7.81259
7.79949
7.77623
7.72374
7.6162
7.44581
7.20318
6.96052
6.79655
6.71439
1092.31
1021.19
7.34807
8.52329
9.15356
9.50888
9.73913
9.89838
10.0025
10.0568
10.0623
10.0234
9.93702
9.8097
9.64655
9.45437
9.24139
9.01768
8.78736
8.55488
8.32741
8.11907
7.955
7.85107
7.78775
7.75168
7.73798
7.72332
7.68795
7.61182
7.47029
7.25912
7.03385
6.88267
6.80578
1092.41
1021.42
7.4414
8.5755
9.20075
9.5614
9.79824
9.96339
10.0738
10.1349
10.1479
10.1153
10.04
9.92461
9.77257
9.58816
9.37663
9.14498
8.89674
8.63585
8.37215
8.12485
7.92705
7.80103
7.72937
7.69382
7.68332
7.6779
7.65486
7.59405
7.47363
7.29655
7.09424
6.95796
6.87684
1092.42
1021.51
7.46436
8.58884
9.21384
9.58791
9.83566
10.0124
10.1363
10.2147
10.2475
10.2418
10.1972
10.1149
9.99606
9.84172
9.65396
9.43631
9.19237
8.9224
8.63221
8.33713
8.06639
7.86037
7.73681
7.66566
7.63103
7.6177
7.6065
7.5673
7.47384
7.32625
7.14938
7.02471
6.9293
1092.37
1021.49
7.45416
8.58481
9.21886
9.59355
9.84909
10.0357
10.1719
10.2658
10.3222
10.34
10.3252
10.277
10.1951
10.0789
9.92815
9.74389
9.52875
9.28187
9.00187
8.69297
8.37174
8.07575
7.84658
7.69916
7.62004
7.57168
7.54138
7.5058
7.44401
7.33491
7.19322
7.08074
6.9726
1092.36
1021.32
7.34643
8.51582
9.19239
9.59307
9.86353
10.0601
10.2063
10.3124
10.3839
10.424
10.4331
10.4136
10.3639
10.2823
10.1671
10.0178
9.83503
9.6218
9.37449
9.08998
8.77017
8.43033
8.11267
7.86025
7.68148
7.58115
7.52093
7.47375
7.4202
7.34008
7.23035
7.12828
7.01041
1092.38
1021.16
7.26781
8.47779
9.17815
9.59317
9.87367
10.0782
10.2324
10.3481
10.4317
10.4865
10.5149
10.5185
10.4961
10.4453
10.3628
10.2463
10.0948
9.9099
9.69425
9.44374
9.15281
8.81934
8.46797
8.14598
7.87149
7.66818
7.54307
7.47515
7.41824
7.35526
7.26719
7.17465
7.05857
1092.51
1021.12
7.26006
8.47669
9.20156
9.63412
9.91786
10.1222
10.2753
10.3906
10.476
10.5368
10.5758
10.5951
10.5939
10.5689
10.5144
10.4263
10.3013
10.1386
9.94279
9.71405
9.44872
9.14121
8.80241
8.46539
8.14245
7.8569
7.64231
7.50191
7.42678
7.37313
7.30319
7.2213
7.11465
1092.68
1021.15
7.32154
8.58129
9.30628
9.73037
10.0045
10.1994
10.3442
10.4523
10.5325
10.5917
10.6345
10.6649
10.6819
10.6798
10.649
10.5844
10.4803
10.3355
10.152
9.93083
9.67208
9.37592
9.0422
8.6974
8.3687
8.0573
7.78883
7.59166
7.47435
7.40744
7.34444
7.2725
7.18285
1092.89
1021.32
7.4891
8.75323
9.44663
9.84169
10.0976
10.279
10.4116
10.5087
10.5802
10.6365
10.6863
10.7352
10.7798
10.8108
10.8087
10.7718
10.6842
10.5461
10.3632
10.1416
9.88036
9.57417
9.22472
8.8674
8.53535
8.21787
7.92529
7.68972
7.53721
7.452
7.38966
7.32651
7.25342
1093.07
1021.59
7.68567
8.92238
9.57662
9.94403
10.1838
10.3543
10.4758
10.5622
10.6221
10.6708
10.7265
10.7949
10.8716
10.9397
10.9875
10.9869
10.925
10.7948
10.6035
10.3656
10.0835
9.75421
9.38219
9.00482
8.66166
8.34214
8.04412
7.79031
7.61461
7.5124
7.44675
7.38979
7.3291
1093.19
1022
7.92806
9.09562
9.69097
10.0245
10.2456
10.4041
10.5143
10.5804
10.629
10.6726
10.7262
10.7946
10.8736
10.9492
11.0063
11.035
11.0336
10.9833
10.8624
10.6512
10.3525
9.97446
9.54456
9.11427
8.73075
8.39678
8.10535
7.8579
7.67888
7.56941
7.50232
7.44871
7.38821
1093.21
1022.47
8.09614
9.17224
9.73168
10.0533
10.2697
10.4233
10.5261
10.588
10.6213
10.6418
10.6782
10.7323
10.8089
10.8958
10.9734
11.0237
11.032
10.9976
10.9139
10.7769
10.5649
10.2538
9.8397
9.34413
8.86149
8.45822
8.144
7.90542
7.7394
7.6333
7.56602
7.51256
7.44341
1093.17
1022.66
8.11888
9.17928
9.73575
10.058
10.2792
10.432
10.5306
10.5841
10.6053
10.6044
10.5808
10.5683
10.5915
10.6456
10.7255
10.8101
10.8751
10.9018
10.8758
10.7825
10.6222
10.3951
10.0764
9.64184
9.11385
8.59277
8.19707
7.93243
7.77529
7.68238
7.6214
7.56488
7.46906
1093.01
1022.66
8.10154
9.15924
9.72009
10.0513
10.2807
10.4526
10.5652
10.6238
10.6361
10.6164
10.5762
10.5263
10.4643
10.4288
10.4298
10.4759
10.5423
10.6113
10.6521
10.6429
10.5664
10.4109
10.1691
9.82749
9.36098
8.813
8.32502
8.00196
7.82932
7.73792
7.67644
7.60966
7.47992
1092.87
1022.53
7.99746
9.07072
9.65896
10.0165
10.2691
10.4536
10.5909
10.6742
10.7024
10.6846
10.626
10.5395
10.4457
10.3636
10.2886
10.2159
10.1988
10.2422
10.2977
10.3417
10.3426
10.2796
10.1343
9.88582
9.51487
9.02073
8.47416
8.08135
7.88127
7.78873
7.72566
7.64742
7.489
1092.81
1022.33
7.89215
8.99085
9.6046
9.97931
10.2466
10.4505
10.6058
10.7149
10.7802
10.7992
10.7759
10.7071
10.5953
10.4504
10.2937
10.1499
10.0409
9.94973
9.9158
9.94253
9.97445
9.97954
9.92819
9.78906
9.5386
9.16048
8.66527
8.21342
7.95763
7.84301
7.77157
7.68233
7.50438
1092.82
1022.13
7.78556
8.90551
9.54585
9.94053
10.223
10.4411
10.6077
10.7285
10.8063
10.8426
10.8449
10.8126
10.7447
10.6381
10.4907
10.3069
10.1025
9.91017
9.74759
9.63047
9.57677
9.57277
9.56654
9.51981
9.39833
9.15388
8.77632
8.3446
8.05664
7.91175
7.82363
7.72188
7.52988
1092.87
1022.04
7.73311
8.86069
9.51648
9.92403
10.2172
10.4465
10.6264
10.7617
10.8542
10.9054
10.9167
10.8924
10.8348
10.7462
10.6276
10.478
10.2955
10.0819
9.85226
9.62749
9.43131
9.27713
9.20477
9.18093
9.14402
9.03307
8.76596
8.42018
8.14074
7.97783
7.87414
7.76124
7.56097
1092.96
1021.98
7.6765
8.81355
9.48768
9.90965
10.2143
10.4549
10.6448
10.7914
10.898
10.9653
10.995
10.9887
10.9463
10.868
10.7553
10.6109
10.4381
10.239
10.0162
9.77428
9.52111
9.2778
9.07166
8.93205
8.88338
8.84863
8.72658
8.46124
8.22316
8.05169
7.93216
7.80852
7.60383
1093.07
1021.92
7.62237
8.77049
9.46613
9.9056
10.221
10.4681
10.6658
10.8213
10.9376
11.0157
11.0575
11.0649
11.0395
10.979
10.883
10.7515
10.5859
10.3885
10.1637
9.91866
9.65419
9.37725
9.10758
8.88791
8.74922
8.6748
8.60979
8.45807
8.2783
8.119
7.99092
7.85894
7.65121
1093.18
1021.92
7.60857
8.75639
9.4618
9.91183
10.2362
10.4923
10.6997
10.8657
10.9935
11.0839
11.1379
11.1579
11.145
11.0958
11.0085
10.8852
10.7278
10.5364
10.3138
10.0641
9.78876
9.49195
9.18884
8.9211
8.72952
8.60861
8.53086
8.44068
8.31695
8.18066
8.0518
7.91464
7.7045
1093.28
1021.95
7.60945
8.75675
9.46751
9.92327
10.2549
10.5177
10.7314
10.9043
11.0404
11.1418
11.209
11.2434
11.2447
11.2132
11.1431
11.0331
10.8822
10.6918
10.4692
10.2152
9.93005
9.61553
9.28529
8.98165
8.7499
8.59334
8.49897
8.42843
8.34455
8.23417
8.11082
7.97257
7.76277
1093.39
1022.05
7.66675
8.80063
9.49758
9.94766
10.2811
10.5496
10.7706
10.9512
11.0951
11.204
11.2786
11.3211
11.3325
11.3134
11.2595
11.1687
11.0378
10.8639
10.6458
10.3867
10.0896
9.75361
9.3929
9.05227
8.78613
8.60156
8.49148
8.42988
8.37133
8.28369
8.16931
8.03235
7.81943
1093.45
1022.14
7.69615
8.8175
9.50714
9.95548
10.2916
10.5658
10.7941
10.9834
11.1373
11.2577
11.3451
11.4017
11.4285
11.4255
11.3904
11.3194
11.2088
11.0543
10.8518
10.5986
10.2908
9.93103
9.53571
9.15016
8.84004
8.62022
8.49092
8.43002
8.39313
8.32633
8.22311
8.08811
7.86743
1093.47
1022.23
7.741
8.84937
9.52643
9.96828
10.3047
10.5826
10.8159
11.0106
11.1688
11.2918
11.3808
11.4389
11.469
11.4726
11.4507
11.3978
11.3117
11.1869
11.0174
10.7967
10.5128
10.1526
9.7211
9.2841
8.92208
8.66103
8.50626
8.4442
8.42117
8.3695
8.2748
8.1415
7.91098
1093.48
1022.35
7.78907
8.87642
9.53423
9.96855
10.3048
10.5858
10.8269
11.0267
11.1886
11.3141
11.4044
11.4625
11.4922
11.4961
11.4765
11.4305
11.3567
11.2507
11.1071
10.9201
10.6769
10.3599
9.95431
9.48468
9.04584
8.72139
8.53634
8.46854
8.45608
8.41595
8.3268
8.19293
7.95032
1093.48
1022.44
7.81654
8.88473
9.53379
9.96764
10.3054
10.5885
10.8289
11.0365
11.2059
11.3381
11.4334
11.4942
11.524
11.5259
11.5033
11.4553
11.3822
11.2811
11.1482
10.9794
10.7639
10.4864
10.1298
9.69794
9.24579
8.84065
8.5856
8.50362
8.49796
8.4666
8.3796
8.24077
7.98434
1093.48
1022.5
7.83508
8.88663
9.52486
9.95174
10.2894
10.5779
10.8272
11.0387
11.2194
11.3613
11.4643
11.5305
11.5628
11.564
11.538
11.4851
11.407
11.3024
11.1688
11.0039
10.7988
10.5432
10.2249
9.84309
9.42835
9.01295
8.70178
8.5744
8.55434
8.52344
8.43737
8.2935
8.01882
1093.46
1022.52
7.84159
8.88332
9.50677
9.92706
10.2638
10.5559
10.8129
11.0357
11.2213
11.3763
11.4912
11.5677
11.6079
11.6141
11.5898
11.5355
11.4537
11.3442
11.2054
11.0343
10.8228
10.5621
10.2453
9.87917
9.49716
9.12056
8.82087
8.6725
8.62855
8.5845
8.49096
8.33398
8.02378
1093.33
1022.54
7.84485
8.87351
9.48689
9.90204
10.2365
10.5292
10.7901
11.0211
11.2198
11.3815
11.5093
11.5973
11.6476
11.6621
11.6436
11.5934
11.5143
11.4071
11.2712
11.1028
10.8922
10.6273
10.2977
9.91257
9.51628
9.14839
8.8794
8.75129
8.70505
8.65002
8.54602
8.37489
8.03815
1093.31
1022.57
7.85742
8.87024
9.46766
9.87438
10.2051
10.4983
10.7639
11.0027
11.2112
11.3854
11.5253
11.6252
11.6863
11.7098
11.6982
11.6531
11.5778
11.4748
11.3459
11.1888
10.9957
10.7536
10.4469
10.0762
9.66837
9.25807
8.94706
8.80495
8.75958
8.70422
8.59693
8.41838
8.06729
1093.37
1022.63
7.87399
8.86858
9.45044
9.84725
10.1725
10.4644
10.7327
10.9782
11.1967
11.3814
11.5299
11.6442
11.7168
11.749
11.7432
11.7018
11.6282
11.5256
11.3981
11.2464
11.0658
10.8488
10.5832
10.2641
9.89488
9.47759
9.10537
8.89787
8.82229
8.75889
8.64841
8.46631
8.11364
1093.51
1022.7
7.89392
8.86522
9.42893
9.81396
10.1321
10.4206
10.6899
10.9409
11.1691
11.3675
11.5289
11.6514
11.7367
11.779
11.7802
11.7437
11.67
11.5638
11.4297
11.2691
11.0836
10.8707
10.6292
10.3616
10.0459
9.66654
9.29263
9.04263
8.92358
8.83517
8.7129
8.5205
8.15137
1093.52
1022.77
7.90684
8.8574
9.40402
9.77718
10.0869
10.3702
10.638
10.8919
11.1277
11.3378
11.5131
11.6475
11.7415
11.7968
11.8067
11.7745
11.7005
11.589
11.4448
11.27
11.0703
10.8509
10.6176
10.3702
10.0895
9.75362
9.41254
9.16027
9.0177
8.90639
8.76848
8.55783
8.15664
1093.44
1022.83
7.91175
8.84546
9.37601
9.73683
10.0372
10.3137
10.5781
10.8331
11.0751
11.2955
11.4845
11.6356
11.7443
11.8101
11.8292
11.802
11.7286
11.6115
11.4531
11.2559
11.0232
10.7767
10.5306
10.2999
10.0567
9.77605
9.49629
9.27373
9.1217
8.98867
8.83116
8.59751
8.15113
1093.25
1022.84
7.91178
8.82911
9.34471
9.69292
9.98262
10.2498
10.5072
10.7596
11.005
11.2351
11.439
11.6075
11.7336
11.8131
11.8505
11.8351
11.7682
11.65
11.4789
11.2553
10.9865
10.6854
10.396
10.1566
9.94971
9.73979
9.52534
9.33024
9.18217
9.03879
8.86924
8.61133
8.10973
1093.04
1022.84
7.89616
8.8051
9.31021
9.6471
9.92623
10.1823
10.4292
10.6738
10.9172
11.1532
11.3707
11.5584
11.7073
11.8114
11.8662
11.8756
11.8282
11.722
11.551
11.3108
11.0036
10.6481
10.2875
9.99793
9.80202
9.65373
9.51384
9.37411
9.23462
9.08577
8.90565
8.63175
8.09534
1092.92
1022.78
7.87327
8.7785
9.27495
9.60195
9.87094
10.1152
10.3487
10.5805
10.8153
11.0507
11.2774
11.4824
11.654
11.7841
11.868
11.9077
11.8972
11.8214
11.6761
11.4503
11.1373
10.744
10.3077
9.92245
9.66044
9.52182
9.4483
9.36778
9.25741
9.11127
8.93289
8.65746
8.10562
1092.92
1022.72
7.84946
8.75117
9.24133
9.56068
9.82065
10.0535
10.2728
10.4887
10.7093
10.9368
11.1655
11.3825
11.5739
11.7294
11.8426
11.91
11.9335
11.9136
11.826
11.6553
11.3918
11.0256
10.5643
10.0616
9.66703
9.44593
9.36386
9.31896
9.253
9.12076
8.95031
8.686
8.14516
1093.06
1022.7
7.83333
8.72711
9.21151
9.52503
9.77716
10.0003
10.2059
10.4047
10.6073
10.8205
11.0436
11.2654
11.4701
11.645
11.783
11.881
11.9363
11.9452
11.9108
11.8222
11.6566
11.3936
11.0322
10.5699
10.0218
9.55565
9.36502
9.31173
9.25446
9.15357
8.99654
8.74573
8.24757
1093.52
1022.71
7.81958
8.70425
9.18449
9.4945
9.74104
9.95542
10.1482
10.33
10.5131
10.7068
10.916
11.1347
11.3457
11.5327
11.6859
11.8023
11.88
11.9191
11.9178
11.8731
11.7772
11.6233
11.3939
11.0666
10.6055
10.0538
9.578
9.34911
9.26222
9.16621
9.0292
8.811
8.38063
1093.97
1022.78
7.81141
8.68181
9.15914
9.46736
9.71051
9.91836
10.1005
10.2656
10.4263
10.5974
10.7875
10.9944
11.2045
11.3972
11.558
11.6814
11.7656
11.8134
11.8287
11.8146
11.7672
11.6816
11.5453
11.3295
10.9881
10.5006
9.95815
9.55715
9.35172
9.22399
9.08133
8.86755
8.4565
1094.04
1022.83
7.79634
8.65595
9.13305
9.44192
9.68375
9.88733
10.0619
10.2139
10.3547
10.4975
10.6599
10.8469
11.0489
11.2423
11.4063
11.5299
11.6102
11.6509
11.6587
11.6414
11.6045
11.5503
11.4698
11.3205
11.0451
10.6518
10.1867
9.76103
9.49445
9.3179
9.14783
8.91124
8.45605
1093.79
1022.84
7.76418
8.62231
9.10324
9.41564
9.65946
9.86212
10.0313
10.1723
10.294
10.412
10.5451
10.7051
10.888
11.0769
11.2429
11.3657
11.4377
11.4614
11.4449
11.3982
11.3341
11.266
11.2014
11.1058
10.9266
10.606
10.1989
9.82757
9.5653
9.3717
9.18152
8.90637
8.36535
1093.18
1022.77
7.71185
8.57735
9.06589
9.38553
9.63545
9.84279
10.0134
10.1503
10.2591
10.3524
10.4507
10.5737
10.7325
10.9119
11.0834
11.2136
11.2868
11.2993
11.2564
11.1727
11.0642
10.9546
10.8679
10.7902
10.6652
10.4496
10.1621
9.86817
9.62209
9.41841
9.20493
8.8877
8.24592
1092.81
1022.64
7.6502
8.52771
9.02498
9.35264
9.61076
9.82607
10.0034
10.1452
10.2527
10.3321
10.3939
10.4738
10.5959
10.7556
10.9315
11.0823
11.1781
11.2056
11.1672
11.0639
10.9087
10.7242
10.5656
10.4737
10.4152
10.3147
10.1253
9.87963
9.65263
9.43664
9.21468
8.88895
8.24065
1092.74
1022.49
7.58321
8.47305
8.98077
9.31802
9.58582
9.81078
9.99744
10.1449
10.2551
10.3319
10.386
10.4347
10.502
10.6248
10.7903
10.9613
11.0968
11.1683
11.1672
11.0866
10.934
10.7214
10.4841
10.2655
10.1173
10.0399
9.96419
9.83364
9.64911
9.44771
9.22659
8.90234
8.24901
1092.84
1022.36
7.52599
8.42289
8.94005
9.28692
9.56406
9.79893
9.99682
10.1575
10.2785
10.3605
10.4075
10.4355
10.4714
10.5375
10.6641
10.8323
11.0015
11.1341
11.2061
11.2066
11.1271
10.961
10.7035
10.3925
10.1121
9.95426
9.85909
9.77559
9.65272
9.47402
9.26495
8.96249
8.36067
1093.42
1022.28
7.47879
8.37679
8.90318
9.25939
9.54584
9.79028
9.99874
10.1695
10.3007
10.3914
10.4424
10.4623
10.471
10.4957
10.5701
10.7047
10.8759
11.0455
11.183
11.2682
11.2886
11.2344
11.0816
10.8251
10.4806
10.1034
9.8627
9.75178
9.64841
9.50834
9.31729
9.03979
8.52651
1094.06
1022.27
7.44396
8.34026
8.87325
9.23721
9.53206
9.78577
10.0045
10.1874
10.3307
10.4317
10.4893
10.5061
10.499
10.4918
10.5089
10.5922
10.734
10.9064
11.0759
11.2154
11.3085
11.3465
11.3128
11.1714
10.9116
10.545
10.1595
9.85436
9.66467
9.51489
9.34686
9.10746
8.662
1094.39
1022.27
7.41486
8.30774
8.84586
9.21673
9.5195
9.78211
10.0107
10.2051
10.3599
10.471
10.5367
10.5563
10.5397
10.5055
10.4847
10.4968
10.585
10.7294
10.8993
11.0632
11.2035
11.3058
11.3413
11.3018
11.1534
10.8732
10.4874
10.0929
9.79702
9.58509
9.39767
9.16099
8.72513
1094.39
1022.28
7.3904
8.27946
8.82143
9.19803
9.50789
9.77899
10.0176
10.2245
10.3934
10.5186
10.5957
10.6217
10.6022
10.5504
10.4885
10.4547
10.4607
10.5474
10.6891
10.8535
11.0189
11.1655
11.2675
11.2789
11.17
10.9529
10.6246
10.2381
9.9074
9.65969
9.44992
9.19147
8.70944
1093.96
1022.27
7.3612
8.24868
8.79448
9.17647
9.49328
9.77293
10.0216
10.2407
10.4232
10.5633
10.6562
10.6972
10.6867
10.6324
10.5483
10.4609
10.4067
10.4032
10.4805
10.6156
10.7833
10.9484
11.0821
11.1498
11.1208
10.9559
10.6705
10.3229
9.99287
9.72727
9.49353
9.19668
8.62933
1093.58
1022.23
7.32669
8.21587
8.76553
9.15231
9.47543
9.7632
10.0215
10.2541
10.4519
10.6086
10.7191
10.7789
10.7859
10.7437
10.66
10.551
10.4386
10.3634
10.3535
10.4248
10.5596
10.7145
10.8581
10.9579
10.9782
10.8867
10.6717
10.381
10.0741
9.8002
9.54493
9.21662
8.61079
1093.48
1022.19
7.2978
8.18718
8.73894
9.12953
9.45847
9.75416
10.0231
10.2673
10.4793
10.6519
10.78
10.8592
10.8868
10.8634
10.7941
10.687
10.5542
10.4215
10.3334
10.3233
10.3966
10.5139
10.6429
10.754
10.8137
10.788
10.6501
10.4104
10.1314
9.85945
9.59486
9.2505
8.61432
1093.49
1022.15
7.26906
8.1576
8.71081
9.10502
9.43987
9.74369
10.0228
10.2794
10.5052
10.6928
10.8369
10.9341
10.9819
10.9792
10.9303
10.8407
10.7141
10.5659
10.4291
10.3492
10.352
10.4072
10.4948
10.5876
10.66
10.6762
10.5993
10.42
10.1754
9.91428
9.64775
9.29824
8.65731
1093.67
1022.13
7.24771
8.13244
8.68418
9.08048
9.4207
9.73266
10.0221
10.2908
10.5297
10.731
10.8896
11.0022
11.0668
11.0827
11.0524
10.9797
10.8666
10.7235
10.5723
10.454
10.402
10.407
10.4446
10.4991
10.5571
10.5891
10.5537
10.4203
10.2102
9.96267
9.69954
9.35486
8.72834
1093.88
1022.13
7.22964
8.10766
8.65599
9.05333
9.3984
9.7184
10.0185
10.2991
10.5507
10.7651
10.9375
11.0644
11.144
11.1761
11.1613
11.1026
11.0006
10.8627
10.7101
10.5775
10.4992
10.4661
10.4674
10.4895
10.5187
10.5383
10.5183
10.4191
10.2372
10.006
9.75218
9.41645
8.80442
1094.03
1022.12
7.21273
8.08202
8.62537
9.0226
9.37165
9.69903
10.0091
10.2997
10.5656
10.794
10.9802
11.1211
11.2153
11.2627
11.2617
11.2152
11.1223
10.9886
10.8319
10.6875
10.5916
10.5393
10.5193
10.5176
10.5306
10.5391
10.5136
10.4224
10.2574
10.0404
9.79604
9.46652
8.85801
1094.06
1022.12
7.19661
8.05532
8.5918
8.98767
9.34017
9.67532
9.99736
10.3
10.5738
10.8154
11.0148
11.1695
11.2781
11.3404
11.3537
11.3189
11.2334
11.1008
10.9371
10.7768
10.6601
10.5888
10.5542
10.5427
10.5457
10.5495
10.522
10.4361
10.2796
10.0725
9.83466
9.50603
8.88653
1094.03
1022.11
7.17685
8.02497
8.55397
8.94739
9.30187
9.64306
9.97494
10.2877
10.5713
10.8215
11.0374
11.2067
11.3309
11.4099
11.4411
11.4224
11.3504
11.2244
11.0552
10.8757
10.7277
10.6241
10.5665
10.5445
10.5453
10.5479
10.5246
10.4451
10.2972
10.0988
9.86634
9.53885
8.9113
1094
1022.1
7.15978
7.99475
8.51465
8.90439
9.25968
9.60616
9.94434
10.2655
10.5607
10.8218
11.0435
11.2282
11.3686
11.4641
11.5138
11.5156
11.4682
11.3649
11.2108
11.0308
10.858
10.7112
10.6083
10.5547
10.5463
10.5459
10.5247
10.4525
10.3142
10.124
9.8961
9.56859
8.93082
1094.02
1022.1
7.14419
7.96409
8.4741
8.85907
9.21335
9.56267
9.90463
10.232
10.5363
10.8089
11.0424
11.2314
11.3811
11.4924
11.5574
11.578
11.5553
11.484
11.3659
11.2178
11.0536
10.8847
10.7366
10.6312
10.5737
10.5506
10.5262
10.4598
10.332
10.1502
9.92814
9.6078
8.98236
1094.2
1022.12
7.12961
7.93306
8.4334
8.81326
9.16503
9.51336
9.85628
10.1875
10.4989
10.7815
11.0267
11.2275
11.3827
11.4958
11.5638
11.5901
11.5793
11.5332
11.4552
11.3512
11.222
11.0697
10.913
10.7771
10.6774
10.61
10.5543
10.4781
10.3525
10.1763
9.96056
9.64741
9.03201
1094.26
1022.12
7.10944
7.89907
8.39123
8.76622
9.11513
9.46048
9.802
10.1347
10.451
10.7412
10.996
11.2076
11.3738
11.4923
11.561
11.5869
11.5772
11.5375
11.4765
11.4043
11.317
11.204
11.0703
10.9358
10.8161
10.7157
10.6265
10.5268
10.3907
10.2125
9.99409
9.67437
9.04739
1094.25
1022.12
7.08509
7.86332
8.34826
8.71814
9.06312
9.4048
9.74382
10.0762
10.3953
10.692
10.9556
11.1763
11.3498
11.4707
11.5361
11.5543
11.5337
11.4853
11.4252
11.3712
11.3151
11.241
11.1494
11.0425
10.9283
10.8151
10.7026
10.5797
10.4286
10.2433
10.0202
9.69221
9.0431
1094.09
1022.09
7.04926
7.82313
8.30366
8.66904
9.00939
9.34619
9.68132
10.0122
10.3336
10.637
10.9115
11.1455
11.3318
11.4608
11.5289
11.5442
11.5141
11.4484
11.3656
11.2978
11.2517
11.2129
11.1526
11.0855
10.9987
10.8905
10.7667
10.6264
10.4613
10.268
10.0364
9.69189
8.99661
1093.88
1022.04
7.01151
7.7834
8.2607
8.62232
8.95839
9.28986
9.61941
9.94604
10.2665
10.5744
10.8594
11.1093
11.313
11.4578
11.5391
11.5608
11.5292
11.453
11.3495
11.2497
11.176
11.1373
11.118
11.0854
11.0258
10.9407
10.822
10.6749
10.5002
10.298
10.0563
9.69372
8.97836
1093.81
1021.97
6.97044
7.74252
8.2182
8.57719
8.90981
9.23632
9.55991
9.88082
10.1978
10.507
10.7998
11.0643
11.2869
11.4522
11.5546
11.5949
11.5769
11.5064
11.3959
11.2691
11.1587
11.0822
11.0479
11.0394
11.0199
10.9575
10.8566
10.7135
10.535
10.3263
10.0777
9.70697
8.97995
1093.81
1021.91
6.9328
7.70421
8.17875
8.53628
8.86672
9.18895
9.50666
9.82104
10.1326
10.4399
10.7368
11.0127
11.2529
11.4405
11.5706
11.6404
11.6506
11.6048
11.5091
11.372
11.2139
11.085
11.0186
10.9951
10.984
10.9521
10.8719
10.7417
10.5672
10.3573
10.1042
9.72901
9.00021
1093.93
1021.86
6.9003
7.66861
8.14179
8.49887
8.82733
9.14599
9.45841
9.76621
10.0713
10.3741
10.6713
10.9539
11.2071
11.4158
11.5735
11.6771
11.7235
11.7147
11.6531
11.5375
11.3747
11.1974
11.0535
10.9964
10.978
10.9523
10.8888
10.7733
10.607
10.3989
10.145
9.77075
9.0532
1094.14
1021.84
6.8747
7.63667
8.10787
8.46495
8.79264
9.10896
9.41705
9.71859
10.0163
10.3124
10.6057
10.8894
11.1491
11.3736
11.555
11.6876
11.7693
11.7991
11.7772
11.6962
11.5548
11.3683
11.1822
11.0523
10.991
10.9596
10.9064
10.804
10.6472
10.4437
10.1919
9.82233
9.1207
1094.34
1021.84
6.85228
7.6063
8.075
8.43215
8.75946
9.07409
9.37861
9.67444
9.96461
10.2526
10.5391
10.819
11.0795
11.3131
11.5115
11.6681
11.7789
11.8429
11.8578
11.8175
11.7111
11.5439
11.3444
11.172
11.0624
11.0009
10.9403
10.8417
10.6906
10.4911
10.2418
9.87507
9.18279
1094.47
1021.85
6.83185
7.57619
8.04239
8.40009
8.72791
9.0419
9.34387
9.63465
9.91715
10.1955
10.4722
10.7431
10.9997
11.2359
11.4432
11.6146
11.7464
11.8373
11.8829
11.8776
11.8105
11.6784
11.4978
11.3142
11.1704
11.0748
10.9943
10.8879
10.7356
10.5368
10.2872
9.91821
9.22068
1094.49
1021.85
6.80794
7.54325
8.00744
8.36592
8.69482
9.00918
9.30987
9.59689
9.87279
10.142
10.4081
10.6679
10.9173
11.1514
11.3618
11.5415
11.6872
11.7967
11.8645
11.8817
11.8464
11.751
11.6026
11.4326
11.2786
11.16
11.0587
10.9398
10.7822
10.581
10.3291
9.95373
9.23918
1094.44
1021.84
6.77792
7.50651
7.96965
8.32921
8.65983
8.97565
9.27646
9.56108
9.8313
10.0916
10.3466
10.594
10.8341
11.0636
11.2741
11.4584
11.6133
11.7353
11.8183
11.8573
11.8433
11.7737
11.6615
11.519
11.3743
11.2469
11.129
10.9951
10.8278
10.6209
10.3631
9.9767
9.23638
1094.33
1021.81
6.73905
7.46494
7.9277
8.28813
8.62072
8.93904
9.24175
9.52629
9.79328
10.0466
10.2909
10.5252
10.7537
10.9757
11.1841
11.3715
11.5337
11.6631
11.7538
11.8021
11.8059
11.7629
11.676
11.5648
11.4392
11.3144
11.1886
11.0452
10.8699
10.6568
10.3932
9.99761
9.235
1094.25
1021.75
6.69322
7.41946
7.88198
8.24263
8.57702
8.89844
9.20449
9.49132
9.75821
10.0078
10.244
10.4668
10.6828
10.8944
11.0973
11.2846
11.4512
11.5856
11.681
11.7353
11.7476
11.7207
11.6631
11.576
11.4742
11.363
11.2394
11.0906
10.9093
10.6917
10.4247
10.0242
9.24841
1094.24
1021.68
6.6456
7.37303
7.83476
8.1946
8.53025
8.85486
9.16528
9.45673
9.72744
9.9788
10.2135
10.4306
10.6379
10.8404
11.0372
11.2238
11.3924
11.5293
11.6266
11.6812
11.6971
11.6789
11.636
11.5727
11.4905
11.3936
11.276
11.1282
10.9458
10.7261
10.4569
10.054
9.27365
1094.29
1021.61
6.60429
7.33098
7.78998
8.14747
8.48342
8.8106
9.12508
9.42139
9.69725
9.95347
10.1919
10.4101
10.6164
10.8166
11.0118
11.1996
11.3712
11.5131
11.6168
11.678
11.6964
11.6788
11.636
11.5752
11.5028
11.4153
11.3057
11.1628
10.9829
10.7646
10.4973
10.0984
9.32591
1094.45
1021.56
6.5689
7.29276
7.74709
8.10038
8.43548
8.76451
9.08269
9.38385
9.66527
9.92741
10.1718
10.3947
10.6047
10.808
11.0066
11.1982
11.3744
11.5233
11.6344
11.7016
11.7254
11.7118
11.6693
11.6081
11.5362
11.4516
11.345
11.2045
11.0261
10.8092
10.5449
10.1538
9.39644
1094.67
1021.52
6.54475
7.26274
7.71019
8.05741
8.39018
8.71976
9.04056
9.34582
9.63253
9.90115
10.1525
10.3816
10.5977
10.8076
11.0119
11.2096
11.3954
11.5569
11.6806
11.7591
11.7919
11.7845
11.7416
11.6733
11.5913
11.5013
11.3928
11.2532
11.0755
10.8597
10.5983
10.2156
9.47754
1094.91
1021.52
6.53012
7.23982
7.6788
8.01902
8.34816
8.67691
8.99884
9.30661
9.59702
9.87075
10.1282
10.3638
10.5865
10.8035
11.0155
11.223
11.4214
11.5968
11.7348
11.8279
11.8746
11.8782
11.8424
11.7704
11.6757
11.5702
11.4531
11.3104
11.1316
10.9161
10.6565
10.2786
9.55898
1095.09
1021.52
6.52659
7.22471
7.6534
7.98635
8.31002
8.63681
8.95884
9.26802
9.56109
9.83892
10.1013
10.3434
10.5722
10.7953
11.0143
11.2309
11.4405
11.6293
11.7829
11.8932
11.9581
11.9781
11.9542
11.8872
11.7882
11.6696
11.5371
11.3823
11.1962
10.9768
10.714
10.3312
9.60771
1095.13
1021.55
6.52967
7.21344
7.6311
7.95637
8.27437
8.59825
8.91863
9.22708
9.52081
9.8013
10.068
10.3165
10.5514
10.7799
11.0046
11.2281
11.4445
11.6422
11.8091
11.9362
12.0212
12.0611
12.0537
11.9992
11.9042
11.7795
11.6336
11.4648
11.2683
11.0413
10.7695
10.3727
9.62813
1095.1
1021.56
6.53401
7.20491
7.61167
7.9292
8.24136
8.5613
8.87814
9.18357
9.47566
9.75702
10.027
10.2822
10.5241
10.7592
10.9898
11.219
11.4402
11.6423
11.8146
11.9537
12.056
12.1147
12.1257
12.0874
12.0028
11.88
11.7277
11.5487
11.3425
11.1057
10.8205
10.4017
9.62306
1094.99
1021.58
6.54212
7.19932
7.59471
7.90492
8.21194
8.52708
8.83813
9.13749
9.42467
9.70386
9.97505
10.2362
10.4863
10.7301
10.969
11.2045
11.4284
11.6332
11.8112
11.9565
12.0714
12.1466
12.1759
12.1556
12.0856
11.9708
11.8183
11.6332
11.4182
11.1702
10.87
10.4296
9.62212
1094.93
1021.61
6.55335
7.19478
7.57923
7.88388
8.18718
8.49702
8.80021
9.09061
9.36968
9.64288
9.91236
10.1782
10.4369
10.6908
10.9384
11.1789
11.4061
11.6133
11.7949
11.9496
12.0731
12.1606
12.2055
12.2027
12.1493
12.0467
11.8997
11.7136
11.4928
11.2352
10.9205
10.4581
9.62282
1094.93
1021.65
6.57166
7.19403
7.56841
7.86959
8.1714
8.47574
8.769
9.04731
9.31455
9.5775
9.84191
10.1109
10.3819
10.6517
10.9153
11.1663
11.3992
11.6094
11.7923
11.95
12.0788
12.1757
12.2332
12.2452
12.2067
12.1161
11.976
11.7911
11.5665
11.3007
10.9728
10.4897
9.62997
1094.95
1021.72
6.59402
7.19169
7.55643
7.85715
8.16104
8.46101
8.74316
9.00697
9.25756
9.50478
9.75875
10.027
10.3098
10.5977
10.8824
11.1526
11.3974
11.6111
11.7948
11.954
12.0867
12.189
12.2556
12.2792
12.2538
12.1749
12.0429
11.8616
11.6359
11.3644
11.0264
10.5277
9.64627
1094.96
1021.81
6.61406
7.18488
7.54243
7.84632
8.15675
8.45608
8.72947
8.97321
9.20153
9.42548
9.66008
9.91858
10.2064
10.5142
10.8298
11.1285
11.3935
11.6195
11.8096
11.9703
12.1014
12.2022
12.2701
12.2987
12.2825
12.2149
12.0934
11.919
11.6955
11.4216
11.0752
10.5588
9.64837
1094.94
1021.91
6.62566
7.17025
7.52319
7.83502
8.15605
8.46133
8.72572
8.9529
9.15166
9.34508
9.54906
9.785
10.0655
10.3859
10.7341
11.0683
11.3632
11.6119
11.8184
11.9918
12.132
12.2381
12.3092
12.3394
12.3254
12.2595
12.139
11.9657
11.7431
11.4671
11.1129
10.5799
9.63818
1094.81
1022
6.6284
7.14767
7.49689
7.81639
8.15086
8.46783
8.73573
8.94876
9.12554
9.27639
9.43871
9.63503
9.89002
10.211
10.5899
10.9649
11.2959
11.574
11.8046
11.9879
12.1324
12.2425
12.3179
12.3503
12.3391
12.2766
12.1611
11.9933
11.7736
11.4971
11.1366
10.5841
9.61203
1094.61
1022.03
6.60785
7.11398
7.46195
7.78848
8.14011
8.47661
8.75592
8.96765
9.12306
9.24355
9.35172
9.48511
9.68725
9.98411
10.3716
10.7742
11.1369
11.4464
11.7076