/*--------------------------------*- C++ -*----------------------------------*\
| =========                 |                                                 |
| \\      /  F ield         | OpenFOAM: The Open Source CFD Toolbox           |
|  \\    /   O peration     | Version:  2.0.x                                 |
|   \\  /    A nd           | Web:      www.OpenFOAM.org                      |
|    \\/     M anipulation  |                                                 |
\*---------------------------------------------------------------------------*/
FoamFile
{
    version     2.0;
    format      ascii;
    class       surfaceScalarField;
    location    "850";
    object      phi;
}
// * * * * * * * * * * * * * * * * * * * * * * * * * * * * * * * * * * * * * //

dimensions      [1 0 -1 0 0 0 0];

internalField   nonuniform List<scalar> 
228225
(
-8.01049e-07
2.33263e-07
4.69211e-07
-1.92788e-06
1.55273e-07
9.71558e-07
-2.80412e-06
-3.0294e-07
1.17918e-06
-3.07057e-06
-9.69296e-07
1.23574e-06
-2.64936e-06
-1.66836e-06
1.24716e-06
-1.60492e-06
-2.29454e-06
1.25011e-06
-4.55449e-08
-2.80561e-06
1.24624e-06
1.91173e-06
-3.19001e-06
1.23275e-06
4.15799e-06
-3.45817e-06
1.21193e-06
6.71725e-06
-3.74964e-06
1.19039e-06
9.57015e-06
-4.02173e-06
1.16885e-06
1.25229e-05
-4.10337e-06
1.15069e-06
1.53945e-05
-4.00686e-06
1.13528e-06
1.82065e-05
-3.91307e-06
1.10105e-06
2.0863e-05
-3.73503e-06
1.07859e-06
2.32629e-05
-3.46341e-06
1.06348e-06
2.53738e-05
-3.16311e-06
1.05228e-06
2.71759e-05
-2.84534e-06
1.04327e-06
2.86575e-05
-2.51793e-06
1.03641e-06
2.98161e-05
-2.18754e-06
1.02897e-06
3.06416e-05
-1.85434e-06
1.02881e-06
3.10909e-05
-1.48275e-06
1.03351e-06
3.12294e-05
-1.17891e-06
1.04044e-06
3.09866e-05
-8.00185e-07
1.04297e-06
3.0359e-05
-4.22518e-07
1.05021e-06
2.93307e-05
-3.07244e-08
1.05905e-06
2.7892e-05
3.6947e-07
1.06926e-06
2.60188e-05
7.94455e-07
1.07883e-06
2.36237e-05
1.30546e-06
1.08971e-06
2.08834e-05
1.64319e-06
1.09712e-06
1.77044e-05
2.06055e-06
1.11858e-06
1.40419e-05
2.52082e-06
1.14176e-06
9.73384e-06
3.15205e-06
1.15609e-06
4.64203e-06
4.01974e-06
1.07222e-06
4.10068e-06
5.41353e-07
8.37117e-08
-2.42077e-07
3.91592e-07
9.72434e-07
-1.56145e-06
8.27956e-07
2.84559e-06
-3.21213e-06
1.036e-06
5.54046e-06
-4.78418e-06
1.11999e-06
8.74634e-06
-6.03336e-06
1.15909e-06
1.22069e-05
-6.92202e-06
1.16689e-06
1.57422e-05
-7.5017e-06
1.16077e-06
1.91982e-05
-7.79268e-06
1.14673e-06
2.25226e-05
-7.8716e-06
1.08903e-06
2.55485e-05
-7.81995e-06
1.04436e-06
2.81338e-05
-7.59973e-06
9.92751e-07
3.02994e-05
-7.23054e-06
9.61585e-07
3.20761e-05
-6.7039e-06
9.20305e-07
3.34498e-05
-6.19414e-06
9.07398e-07
3.43974e-05
-5.5759e-06
8.93295e-07
3.50086e-05
-4.95772e-06
8.83091e-07
3.5328e-05
-4.35476e-06
8.72281e-07
3.53941e-05
-3.77289e-06
8.61509e-07
3.52359e-05
-3.21145e-06
8.51718e-07
3.48699e-05
-2.66486e-06
8.43361e-07
3.43056e-05
-2.12479e-06
8.34772e-07
3.35733e-05
-1.58144e-06
8.30992e-07
3.2589e-05
-1.02714e-06
8.326e-07
3.13986e-05
-4.49164e-07
8.39442e-07
2.99397e-05
1.85905e-07
8.50453e-07
2.82305e-05
8.14028e-07
8.64521e-07
2.63242e-05
1.3836e-06
8.9223e-07
2.41116e-05
2.08962e-06
9.17438e-07
2.15808e-05
2.89641e-06
9.39838e-07
1.87289e-05
3.52234e-06
9.7278e-07
1.54829e-05
4.29249e-06
1.01409e-06
1.17693e-05
5.17911e-06
1.05535e-06
7.48804e-06
6.36117e-06
1.07221e-06
3.06736e-06
7.46919e-06
9.71274e-07
6.65116e-06
5.16888e-07
6.07751e-07
-1.17351e-06
3.23621e-07
2.82203e-06
-4.4633e-06
6.87505e-07
6.17634e-06
-7.41852e-06
8.52036e-07
9.91836e-06
-9.4574e-06
9.31152e-07
1.35474e-05
-1.06248e-05
9.62338e-07
1.68504e-05
-1.11857e-05
9.60621e-07
1.97907e-05
-1.13839e-05
9.41917e-07
2.23562e-05
-1.12616e-05
9.03369e-07
2.45197e-05
-1.0921e-05
8.85847e-07
2.61877e-05
-1.03388e-05
8.50935e-07
2.72946e-05
-9.50881e-06
8.02207e-07
2.79677e-05
-8.65049e-06
7.46799e-07
2.8325e-05
-7.76911e-06
7.07882e-07
2.83086e-05
-6.83994e-06
6.62176e-07
2.80624e-05
-5.94022e-06
6.10536e-07
2.76765e-05
-5.12958e-06
5.57755e-07
2.72041e-05
-4.39547e-06
5.13182e-07
2.6682e-05
-3.7303e-06
4.7944e-07
2.6126e-05
-3.11318e-06
4.57746e-07
2.55306e-05
-2.51795e-06
4.48487e-07
2.48793e-05
-1.92483e-06
4.51346e-07
2.41491e-05
-1.31693e-06
4.65761e-07
2.33005e-05
-6.69627e-07
4.91107e-07
2.22972e-05
2.54645e-08
5.28647e-07
2.12302e-05
6.90121e-07
5.62769e-07
2.00094e-05
1.42563e-06
6.09265e-07
1.86155e-05
2.11877e-06
6.58811e-07
1.70538e-05
2.94054e-06
7.10785e-07
1.53608e-05
3.81802e-06
7.71474e-07
1.32783e-05
4.76715e-06
8.37732e-07
1.08412e-05
5.82855e-06
9.01072e-07
7.95176e-06
7.11633e-06
9.52302e-07
4.67996e-06
8.66598e-06
9.67072e-07
1.67741e-06
9.61383e-06
8.58005e-07
7.90579e-06
4.22774e-07
1.13939e-06
-2.57071e-06
2.57752e-07
3.73112e-06
-7.63364e-06
5.78563e-07
6.59635e-06
-1.10608e-05
7.77059e-07
9.03207e-06
-1.27808e-05
8.87617e-07
1.09357e-05
-1.34466e-05
9.18126e-07
1.24155e-05
-1.35525e-05
8.87065e-07
1.35628e-05
-1.33815e-05
8.5021e-07
1.44599e-05
-1.29557e-05
7.97036e-07
1.51109e-05
-1.23156e-05
7.43732e-07
1.55776e-05
-1.14799e-05
6.74401e-07
1.59146e-05
-1.04424e-05
5.96552e-07
1.60163e-05
-9.25439e-06
5.02205e-07
1.59061e-05
-8.03268e-06
3.73717e-07
1.56727e-05
-6.86016e-06
2.53645e-07
1.53652e-05
-5.78746e-06
1.54735e-07
1.5027e-05
-4.87077e-06
7.93749e-08
1.47262e-05
-4.12086e-06
2.61944e-08
1.44867e-05
-3.48746e-06
-3.34697e-09
1.42954e-05
-2.91078e-06
-1.11191e-08
1.41245e-05
-2.34706e-06
-3.55379e-11
1.39436e-05
-1.77136e-06
2.73934e-08
1.37208e-05
-1.16305e-06
6.89659e-08
1.34337e-05
-4.95687e-07
1.13137e-07
1.30645e-05
2.22688e-07
1.71936e-07
1.27031e-05
8.16235e-07
2.35265e-07
1.22435e-05
1.5783e-06
3.06891e-07
1.15759e-05
2.40002e-06
3.86351e-07
1.07774e-05
3.26538e-06
4.73553e-07
9.81668e-06
4.21127e-06
5.67435e-07
8.61157e-06
5.31498e-06
6.57216e-07
7.05954e-06
6.62826e-06
7.52238e-07
5.04592e-06
8.28334e-06
8.46539e-07
2.76339e-06
1.00546e-05
8.93811e-07
7.73394e-07
1.08137e-05
7.90052e-07
8.32872e-06
3.50457e-07
9.37329e-07
-3.76612e-06
2.57979e-07
2.49749e-06
-9.82137e-06
6.27506e-07
3.76841e-06
-1.31853e-05
8.53463e-07
4.60623e-06
-1.45683e-05
9.49733e-07
5.21737e-06
-1.50182e-05
9.60385e-07
5.74829e-06
-1.50211e-05
9.37615e-07
6.23344e-06
-1.47477e-05
8.81106e-07
6.67341e-06
-1.42037e-05
8.08031e-07
7.05091e-06
-1.34162e-05
7.23059e-07
7.34165e-06
-1.23969e-05
6.26153e-07
7.55005e-06
-1.11661e-05
5.15188e-07
7.67205e-06
-9.77067e-06
3.94247e-07
7.667e-06
-8.30037e-06
2.72708e-07
7.56647e-06
-6.90121e-06
1.41543e-07
7.44117e-06
-5.67292e-06
1.07374e-08
7.35827e-06
-4.68772e-06
-1.00185e-07
7.3336e-06
-3.91968e-06
-1.76526e-07
7.35796e-06
-3.28982e-06
-2.22022e-07
7.41366e-06
-2.72465e-06
-2.41854e-07
7.4787e-06
-2.17167e-06
-2.40452e-07
7.52862e-06
-1.60022e-06
-2.21071e-07
7.5446e-06
-9.92521e-07
-1.86527e-07
7.53628e-06
-3.46946e-07
-1.40442e-07
7.56555e-06
2.86147e-07
-9.27516e-08
7.51227e-06
9.0301e-07
-3.35118e-08
7.42601e-06
1.62904e-06
3.55038e-08
7.27308e-06
2.43592e-06
1.17012e-07
6.99536e-06
3.32695e-06
2.16141e-07
6.53715e-06
4.34484e-06
3.24617e-07
5.85574e-06
5.55597e-06
4.40399e-07
4.83782e-06
7.08595e-06
5.60213e-07
3.41217e-06
9.03618e-06
6.72778e-07
1.79147e-06
1.09251e-05
7.5014e-07
3.93421e-07
1.15499e-05
6.61785e-07
8.45313e-06
2.69004e-07
4.98493e-07
-4.52704e-06
2.62439e-07
1.04642e-06
-1.09891e-05
6.19763e-07
1.38042e-06
-1.43431e-05
8.23782e-07
1.57568e-06
-1.5679e-05
9.15354e-07
1.72315e-06
-1.61044e-05
9.38813e-07
1.86559e-06
-1.60902e-05
9.26666e-07
1.9972e-06
-1.5769e-05
8.89607e-07
2.12912e-06
-1.51712e-05
8.35559e-07
2.26523e-06
-1.43196e-05
7.67262e-07
2.42262e-06
-1.32366e-05
6.82287e-07
2.6379e-06
-1.19585e-05
5.77143e-07
2.94876e-06
-1.0534e-05
4.52484e-07
3.35639e-06
-9.02023e-06
3.12202e-07
3.78755e-06
-7.49736e-06
1.64962e-07
4.16608e-06
-6.07437e-06
2.29001e-08
4.42985e-06
-4.85218e-06
-9.93381e-08
4.58374e-06
-3.87996e-06
-1.93638e-07
4.67798e-06
-3.12262e-06
-2.61456e-07
4.75305e-06
-2.49485e-06
-3.04905e-07
4.82415e-06
-1.91941e-06
-3.23388e-07
4.89219e-06
-1.34695e-06
-3.2134e-07
4.9538e-06
-7.51703e-07
-3.02459e-07
5.01794e-06
-1.40666e-07
-2.70464e-07
5.11327e-06
4.23034e-07
-2.32262e-07
5.14735e-06
1.05132e-06
-1.8245e-07
5.16187e-06
1.73684e-06
-1.22389e-07
5.14453e-06
2.50508e-06
-5.18905e-08
5.06198e-06
3.37946e-06
2.99315e-08
4.86171e-06
4.42167e-06
1.23307e-07
4.45633e-06
5.72603e-06
2.35177e-07
3.72752e-06
7.44655e-06
3.68065e-07
2.63914e-06
9.62895e-06
4.95483e-07
1.36847e-06
1.15861e-05
6.09595e-07
2.68297e-07
1.20976e-05
5.52272e-07
8.50367e-06
2.17752e-07
5.72982e-08
-4.86135e-06
2.77015e-07
-9.42869e-09
-1.1554e-05
6.31686e-07
-1.55225e-07
-1.50239e-05
8.26671e-07
-3.12979e-07
-1.64383e-05
9.17124e-07
-4.49117e-07
-1.69167e-05
9.48398e-07
-5.44283e-07
-1.69454e-05
9.50376e-07
-5.83998e-07
-1.66634e-05
9.34112e-07
-5.47368e-07
-1.61132e-05
9.05332e-07
-4.14545e-07
-1.53177e-05
8.65269e-07
-1.64285e-07
-1.42979e-05
8.11058e-07
2.18258e-07
-1.30788e-05
7.37789e-07
7.3487e-07
-1.16932e-05
6.42579e-07
1.37215e-06
-1.01819e-05
5.2434e-07
2.08678e-06
-8.59688e-06
3.84868e-07
2.79194e-06
-7.01035e-06
2.30797e-07
3.38309e-06
-5.5188e-06
7.54568e-08
3.78897e-06
-4.22308e-06
-6.27794e-08
4.01112e-06
-3.17844e-06
-1.66346e-07
4.10937e-06
-2.35702e-06
-2.36096e-07
4.15164e-06
-1.6777e-06
-2.8399e-07
4.17665e-06
-1.06132e-06
-3.10662e-07
4.21152e-06
-4.68629e-07
-3.17956e-07
4.28993e-06
9.01206e-08
-3.09219e-07
4.35199e-06
6.50242e-07
-2.89292e-07
4.39949e-06
1.26132e-06
-2.57524e-07
4.4273e-06
1.92585e-06
-2.16851e-07
4.4272e-06
2.67153e-06
-1.66396e-07
4.37086e-06
3.54091e-06
-1.05163e-07
4.21984e-06
4.60258e-06
-2.99502e-08
3.89399e-06
5.98545e-06
6.63528e-08
3.28929e-06
7.85889e-06
1.92291e-07
2.36416e-06
1.0207e-05
3.4703e-07
1.29082e-06
1.21914e-05
4.67907e-07
3.3287e-07
1.26059e-05
4.49472e-07
8.65551e-06
1.81033e-07
-1.69906e-07
-4.95339e-06
2.61996e-07
-4.85461e-07
-1.18127e-05
5.74325e-07
-8.13345e-07
-1.54391e-05
7.43115e-07
-1.11985e-06
-1.69618e-05
8.30024e-07
-1.38114e-06
-1.75223e-05
8.6691e-07
-1.57772e-06
-1.76228e-05
8.73998e-07
-1.68477e-06
-1.74202e-05
8.63947e-07
-1.6815e-06
-1.69596e-05
8.43173e-07
-1.54967e-06
-1.62656e-05
8.16056e-07
-1.27337e-06
-1.53569e-05
7.82723e-07
-8.40111e-07
-1.4252e-05
7.39962e-07
-2.44985e-07
-1.29732e-05
6.84855e-07
5.05356e-07
-1.15465e-05
6.14279e-07
1.38544e-06
-1.0002e-05
5.25058e-07
2.33835e-06
-8.37852e-06
4.15251e-07
3.26508e-06
-6.73179e-06
2.86267e-07
4.03896e-06
-5.14284e-06
1.45886e-07
4.56216e-06
-3.71135e-06
9.70677e-09
4.82349e-06
-2.51479e-06
-1.03557e-07
4.88586e-06
-1.55672e-06
-1.83357e-07
4.84366e-06
-7.81961e-07
-2.37163e-07
4.77846e-06
-1.32524e-07
-2.70917e-07
4.75109e-06
3.99016e-07
-2.81537e-07
4.70518e-06
9.74935e-07
-2.78793e-07
4.65141e-06
1.57633e-06
-2.61275e-07
4.58541e-06
2.22412e-06
-2.32292e-07
4.4968e-06
2.95175e-06
-1.91638e-07
4.36062e-06
3.81471e-06
-1.3767e-07
4.13674e-06
4.89569e-06
-6.92845e-08
3.7596e-06
6.34433e-06
1.82086e-08
3.14252e-06
8.34329e-06
1.32606e-07
2.25765e-06
1.08226e-05
2.69145e-07
1.25561e-06
1.28155e-05
3.77862e-07
3.50228e-07
1.31355e-05
3.75744e-07
8.84983e-06
1.559e-07
-2.45612e-07
-4.95789e-06
2.50109e-07
-5.47311e-07
-1.20457e-05
5.34602e-07
-7.53e-07
-1.59236e-05
6.90158e-07
-8.85111e-07
-1.761e-05
7.80296e-07
-9.71309e-07
-1.82645e-05
8.28397e-07
-1.00422e-06
-1.84378e-05
8.4786e-07
-9.67947e-07
-1.83064e-05
8.49855e-07
-8.45278e-07
-1.79223e-05
8.40026e-07
-6.22633e-07
-1.73105e-05
8.22296e-07
-2.91046e-07
-1.64867e-05
7.98184e-07
1.5431e-07
-1.54643e-05
7.66918e-07
7.13071e-07
-1.42603e-05
7.2831e-07
1.38115e-06
-1.28966e-05
6.82032e-07
2.1516e-06
-1.13989e-05
6.26466e-07
3.00879e-06
-9.79423e-06
5.58528e-07
3.91556e-06
-8.11309e-06
4.7454e-07
4.79795e-06
-6.3971e-06
3.71864e-07
5.54352e-06
-4.70874e-06
2.51838e-07
6.04092e-06
-3.13525e-06
1.23065e-07
6.24934e-06
-1.76589e-06
7.57592e-10
6.21894e-06
-6.53239e-07
-9.83233e-08
6.06201e-06
1.91718e-07
-1.67313e-07
5.89386e-06
7.70095e-07
-2.0293e-07
5.71271e-06
1.37917e-06
-2.23096e-07
5.51324e-06
2.00176e-06
-2.25958e-07
5.28777e-06
2.66437e-06
-2.14794e-07
5.02526e-06
3.40482e-06
-1.90573e-07
4.71535e-06
4.27782e-06
-1.5323e-07
4.33406e-06
5.37854e-06
-1.01584e-07
3.83906e-06
6.87163e-06
-3.23476e-08
3.1684e-06
8.95256e-06
6.13693e-08
2.298e-06
1.15129e-05
1.80111e-07
1.32929e-06
1.34906e-05
2.93677e-07
4.28386e-07
1.37201e-05
3.16278e-07
9.13835e-06
1.39868e-07
-8.75469e-08
-5.07323e-06
2.02835e-07
-9.55908e-08
-1.24625e-05
4.24888e-07
1.56037e-08
-1.65939e-05
5.5903e-07
1.69286e-07
-1.84111e-05
6.47341e-07
3.23193e-07
-1.912e-05
7.01581e-07
4.82222e-07
-1.93255e-05
7.28665e-07
6.63387e-07
-1.92249e-05
7.37325e-07
8.81314e-07
-1.88724e-05
7.32143e-07
1.14697e-06
-1.82935e-05
7.17323e-07
1.46829e-06
-1.75039e-05
6.95854e-07
1.85155e-06
-1.65167e-05
6.69079e-07
2.30109e-06
-1.53482e-05
6.3837e-07
2.81923e-06
-1.40203e-05
6.05608e-07
3.40733e-06
-1.2559e-05
5.71969e-07
4.06547e-06
-1.09893e-05
5.36924e-07
4.78718e-06
-9.33246e-06
4.97674e-07
5.54992e-06
-7.60921e-06
4.49376e-07
6.30022e-06
-5.84504e-06
3.86005e-07
6.94212e-06
-4.07956e-06
3.02426e-07
7.35425e-06
-2.37628e-06
1.98277e-07
7.44897e-06
-8.30586e-07
8.26469e-08
7.25702e-06
4.07625e-07
-2.39441e-08
6.96439e-06
1.15139e-06
-8.86563e-08
6.60773e-06
1.87055e-06
-1.34707e-07
6.22674e-06
2.54248e-06
-1.59716e-07
5.83323e-06
3.22517e-06
-1.67265e-07
5.41912e-06
3.97854e-06
-1.59582e-07
4.96598e-06
4.86883e-06
-1.37852e-07
4.44963e-06
5.9971e-06
-1.0217e-07
3.83918e-06
7.53295e-06
-5.08296e-08
3.09592e-06
9.67434e-06
2.15206e-08
2.21308e-06
1.22762e-05
1.19563e-07
1.27576e-06
1.42044e-05
2.23551e-07
4.06061e-07
1.43303e-05
2.59578e-07
9.42537e-06
1.1905e-07
9.18832e-08
-5.33147e-06
1.6621e-07
4.42565e-07
-1.31896e-05
3.7631e-07
9.36896e-07
-1.7599e-05
5.10759e-07
1.46152e-06
-1.95304e-05
5.94627e-07
1.95898e-06
-2.02632e-05
6.45701e-07
2.41778e-06
-2.04574e-05
6.73063e-07
2.84726e-06
-2.03381e-05
6.83684e-07
3.25036e-06
-1.99553e-05
6.79766e-07
3.62887e-06
-1.93359e-05
6.63854e-07
3.98336e-06
-1.84962e-05
6.37867e-07
4.31523e-06
-1.74517e-05
6.0317e-07
4.62904e-06
-1.6224e-05
5.62009e-07
4.9341e-06
-1.48435e-05
5.18074e-07
5.24532e-06
-1.33457e-05
4.75481e-07
5.58122e-06
-1.17628e-05
4.37609e-07
5.95931e-06
-1.01166e-05
4.06011e-07
6.38876e-06
-8.41823e-06
3.79547e-07
6.86275e-06
-6.67295e-06
3.53902e-07
7.34404e-06
-4.88237e-06
3.21494e-07
7.74729e-06
-3.05206e-06
2.72512e-07
7.94227e-06
-1.22366e-06
1.98073e-07
7.84238e-06
4.05917e-07
1.01579e-07
7.56866e-06
1.39582e-06
2.92736e-08
7.15054e-06
2.32526e-06
-3.65998e-08
6.66509e-06
3.11087e-06
-8.29498e-08
6.15545e-06
3.84447e-06
-1.09672e-07
5.6309e-06
4.622e-06
-1.18905e-07
5.07899e-06
5.53321e-06
-1.1247e-07
4.47536e-06
6.69216e-06
-9.14234e-08
3.79034e-06
8.27338e-06
-5.53952e-08
2.99917e-06
1.04662e-05
-6.91597e-10
2.1134e-06
1.30831e-05
7.89199e-08
1.21269e-06
1.49347e-05
1.70402e-07
3.83329e-07
1.49481e-05
2.11613e-07
9.71244e-06
9.62563e-08
3.73232e-07
-5.83562e-06
1.30709e-07
9.98399e-07
-1.41354e-05
3.20468e-07
1.64619e-06
-1.86937e-05
4.46816e-07
2.25874e-06
-2.0665e-05
5.21977e-07
2.81671e-06
-2.13889e-05
5.6769e-07
3.30511e-06
-2.15402e-05
5.9441e-07
3.7264e-06
-2.13676e-05
6.08237e-07
4.08145e-06
-2.09197e-05
6.09316e-07
4.36857e-06
-2.02214e-05
5.98305e-07
4.58806e-06
-1.92916e-05
5.75783e-07
4.74513e-06
-1.81512e-05
5.42304e-07
4.8519e-06
-1.68301e-05
4.99297e-07
4.92724e-06
-1.53688e-05
4.49864e-07
4.99505e-06
-1.38118e-05
3.98239e-07
5.08106e-06
-1.21979e-05
3.49021e-07
5.20888e-06
-1.05507e-05
3.06253e-07
5.3962e-06
-8.8781e-06
2.72495e-07
5.65028e-06
-7.1751e-06
2.48004e-07
5.96102e-06
-5.42309e-06
2.29906e-07
6.2907e-06
-3.5937e-06
2.11874e-07
6.56384e-06
-1.681e-06
1.84117e-07
6.67848e-06
1.5299e-07
1.38212e-07
6.60778e-06
1.37684e-06
8.96121e-08
6.36265e-06
2.53911e-06
3.12327e-08
5.98896e-06
3.50532e-06
-2.08215e-08
5.54344e-06
4.34879e-06
-5.88503e-08
5.05594e-06
5.19109e-06
-8.16308e-08
4.52997e-06
6.14864e-06
-8.95151e-08
3.94898e-06
7.35607e-06
-8.29744e-08
3.2859e-06
8.998e-06
-6.16046e-08
2.5258e-06
1.12485e-05
-2.22088e-08
1.70245e-06
1.38648e-05
4.15491e-08
9.09846e-07
1.56069e-05
1.20325e-07
2.11228e-07
1.54858e-05
1.60813e-07
9.85797e-06
6.5689e-08
4.21083e-07
-6.39341e-06
1.36416e-07
9.60168e-07
-1.50161e-05
3.41487e-07
1.33279e-06
-1.95301e-05
4.63648e-07
1.61858e-06
-2.14764e-05
5.25512e-07
1.89499e-06
-2.22212e-05
5.55739e-07
2.17292e-06
-2.23898e-05
5.71623e-07
2.40887e-06
-2.21828e-05
5.79127e-07
2.58319e-06
-2.16721e-05
5.78034e-07
2.68981e-06
-2.08954e-05
5.67323e-07
2.73166e-06
-1.98798e-05
5.46299e-07
2.72155e-06
-1.86557e-05
5.14591e-07
2.68182e-06
-1.72632e-05
4.72706e-07
2.63973e-06
-1.57494e-05
4.22633e-07
2.62123e-06
-1.4161e-05
3.67566e-07
2.64714e-06
-1.25353e-05
3.11429e-07
2.73231e-06
-1.08942e-05
2.58258e-07
2.88489e-06
-9.24231e-06
2.11527e-07
3.10536e-06
-7.56932e-06
1.73651e-07
3.38647e-06
-5.84987e-06
1.45548e-07
3.71675e-06
-4.05051e-06
1.26383e-07
4.0842e-06
-2.1616e-06
1.13011e-07
4.44204e-06
-3.03916e-07
9.89312e-08
4.62608e-06
1.1155e-06
7.71783e-08
4.655e-06
2.46785e-06
4.22279e-08
4.54483e-06
3.61171e-06
3.6912e-09
4.3207e-06
4.6036e-06
-3.07567e-08
4.00966e-06
5.55862e-06
-5.65749e-08
3.62741e-06
6.60263e-06
-7.18127e-08
3.1655e-06
7.89313e-06
-7.5225e-08
2.60171e-06
9.62686e-06
-6.51536e-08
1.93408e-06
1.19539e-05
-3.78355e-08
1.22584e-06
1.45599e-05
1.30811e-08
5.87995e-07
1.6164e-05
8.06331e-08
6.62409e-08
1.58897e-05
1.17645e-07
9.88321e-06
4.09909e-08
2.06696e-07
-6.75355e-06
1.53247e-07
2.40587e-07
-1.53974e-05
3.4729e-07
7.18292e-08
-1.98177e-05
4.56239e-07
-1.74049e-07
-2.17502e-05
5.19615e-07
-4.11782e-07
-2.25345e-05
5.50977e-07
-6.09035e-07
-2.27596e-05
5.669e-07
-7.81091e-07
-2.25883e-05
5.77481e-07
-9.49264e-07
-2.20841e-05
5.8004e-07
-1.11697e-06
-2.13021e-05
5.74314e-07
-1.27475e-06
-2.02819e-05
5.59808e-07
-1.40264e-06
-1.90638e-05
5.35882e-07
-1.47744e-06
-1.76911e-05
5.02603e-07
-1.48026e-06
-1.62075e-05
4.60861e-07
-1.40113e-06
-1.46526e-05
4.1234e-07
-1.23917e-06
-1.30569e-05
3.59479e-07
-9.99219e-07
-1.14395e-05
3.05148e-07
-6.88874e-07
-9.8051e-06
2.52285e-07
-3.15953e-07
-8.14595e-06
2.03522e-07
1.16377e-07
-6.44337e-06
1.6096e-07
6.14724e-07
-4.67509e-06
1.25989e-07
1.19193e-06
-2.83808e-06
9.8992e-08
1.8081e-06
-9.98613e-07
7.82412e-08
2.22467e-06
6.39694e-07
5.89396e-08
2.54722e-06
2.10818e-06
3.68626e-08
2.71953e-06
3.42872e-06
1.04189e-08
2.75115e-06
4.58815e-06
-1.64189e-08
2.66985e-06
5.6812e-06
-4.15284e-08
2.48455e-06
6.84716e-06
-5.95018e-08
2.18964e-06
8.25662e-06
-6.88843e-08
1.77081e-06
1.01125e-05
-6.71627e-08
1.24221e-06
1.25317e-05
-4.95378e-08
6.94188e-07
1.51172e-05
-9.48945e-09
2.44437e-07
1.65663e-05
4.71045e-08
-7.51709e-08
1.61291e-05
7.97715e-08
9.78461e-06
2.34103e-08
-1.59963e-07
-6.77235e-06
1.78574e-07
-5.48347e-07
-1.53678e-05
3.58579e-07
-1.03626e-06
-1.97804e-05
4.50476e-07
-1.56758e-06
-2.17316e-05
5.12647e-07
-2.11725e-06
-2.25338e-05
5.48922e-07
-2.66732e-06
-2.27742e-05
5.64642e-07
-3.1632e-06
-2.26756e-05
5.83184e-07
-3.57502e-06
-2.22643e-05
5.91953e-07
-3.88388e-06
-2.1587e-05
5.93741e-07
-4.07198e-06
-2.0683e-05
5.89133e-07
-4.12537e-06
-1.95881e-05
5.77641e-07
-4.04131e-06
-1.83342e-05
5.58931e-07
-3.83147e-06
-1.69511e-05
5.3365e-07
-3.51748e-06
-1.54681e-05
5.01423e-07
-3.12459e-06
-1.39126e-05
4.62669e-07
-2.67548e-06
-1.23073e-05
4.18578e-07
-2.18542e-06
-1.06662e-05
3.7084e-07
-1.66066e-06
-8.99223e-06
3.21344e-07
-1.09703e-06
-7.27907e-06
2.71888e-07
-4.83231e-07
-5.5131e-06
2.23983e-07
1.85286e-07
-3.6858e-06
1.78943e-07
8.66099e-07
-1.81766e-06
1.37944e-07
1.3994e-06
4.73485e-09
1.01375e-07
1.86589e-06
1.57023e-06
7.11774e-08
2.1741e-06
3.07804e-06
4.22314e-08
2.3207e-06
4.4259e-06
1.54132e-08
2.32403e-06
5.68149e-06
-3.8519e-09
2.20173e-06
6.99514e-06
-2.59305e-08
1.95163e-06
8.54676e-06
-4.03058e-08
1.57272e-06
1.05365e-05
-4.5372e-08
1.09512e-06
1.30453e-05
-3.62818e-08
6.21746e-07
1.55967e-05
-6.28138e-09
2.49521e-07
1.68982e-05
4.00296e-08
-1.40515e-08
1.63231e-05
6.91904e-08
9.73807e-06
3.24765e-08
-4.382e-07
-6.52219e-06
1.87929e-07
-1.10874e-06
-1.49982e-05
3.009e-07
-1.77089e-06
-1.94736e-05
3.55375e-07
-2.37805e-06
-2.15602e-05
4.35708e-07
-2.93738e-06
-2.24725e-05
4.98024e-07
-3.45728e-06
-2.27888e-05
5.34478e-07
-3.91373e-06
-2.2788e-05
5.68726e-07
-4.26334e-06
-2.25033e-05
5.88584e-07
-4.47507e-06
-2.19766e-05
6.01242e-07
-4.53123e-06
-2.12372e-05
6.10311e-07
-4.42871e-06
-2.03072e-05
6.16415e-07
-4.17841e-06
-1.92019e-05
6.1735e-07
-3.80495e-06
-1.79375e-05
6.1284e-07
-3.33991e-06
-1.65357e-05
6.02451e-07
-2.81613e-06
-1.5022e-05
5.85486e-07
-2.26182e-06
-1.34232e-05
5.6139e-07
-1.69545e-06
-1.17627e-05
5.30012e-07
-1.12468e-06
-1.00549e-05
4.91672e-07
-5.47512e-07
-8.30352e-06
4.47045e-07
4.59576e-08
-6.50363e-06
3.96787e-07
6.62903e-07
-4.6446e-06
3.41526e-07
1.28858e-06
-2.72608e-06
2.8238e-07
1.85958e-06
-7.88304e-07
2.21646e-07
2.24474e-06
1.01415e-06
1.7052e-07
2.56907e-06
2.63041e-06
1.2291e-07
2.71381e-06
4.19581e-06
8.4978e-08
2.67818e-06
5.66094e-06
5.57965e-08
2.49613e-06
7.14713e-06
2.96663e-08
2.18495e-06
8.84896e-06
8.55089e-09
1.75693e-06
1.09695e-05
-5.33899e-09
1.25394e-06
1.35539e-05
-5.94645e-09
7.81062e-07
1.60552e-05
1.397e-08
3.99673e-07
1.72281e-05
5.11293e-08
9.84804e-08
1.65449e-05
7.88121e-08
9.77718e-06
5.93543e-08
-5.17045e-07
-6.15812e-06
1.52957e-07
-1.30366e-06
-1.44119e-05
2.00265e-07
-1.96281e-06
-1.90166e-05
2.02087e-07
-2.48837e-06
-2.12907e-05
2.56055e-07
-2.94548e-06
-2.23605e-05
3.45123e-07
-3.32601e-06
-2.2839e-05
4.30685e-07
-3.60983e-06
-2.29716e-05
4.67391e-07
-3.77685e-06
-2.28302e-05
4.93896e-07
-3.81422e-06
-2.24532e-05
5.13939e-07
-3.71868e-06
-2.18632e-05
5.30378e-07
-3.49367e-06
-2.10772e-05
5.45014e-07
-3.15178e-06
-2.01035e-05
5.5962e-07
-2.71312e-06
-1.89494e-05
5.73163e-07
-2.19617e-06
-1.76388e-05
5.86058e-07
-1.62846e-06
-1.61877e-05
5.97871e-07
-1.0395e-06
-1.46191e-05
6.0689e-07
-4.50199e-07
-1.29625e-05
6.1033e-07
1.29208e-07
-1.12401e-05
6.05694e-07
6.94453e-07
-9.45993e-06
5.91005e-07
1.25096e-06
-7.62504e-06
5.64725e-07
1.80794e-06
-5.72746e-06
5.25668e-07
2.35528e-06
-3.74685e-06
4.73153e-07
2.83157e-06
-1.67194e-06
4.07069e-07
3.09827e-06
4.18796e-07
3.28374e-07
3.36844e-06
2.09912e-06
2.60813e-07
3.45222e-06
3.91644e-06
1.95304e-07
3.34909e-06
5.62491e-06
1.3888e-07
3.08321e-06
7.30961e-06
1.03099e-07
2.68818e-06
9.16947e-06
7.41956e-08
2.1885e-06
1.14162e-05
5.26498e-08
1.62917e-06
1.40701e-05
4.28383e-08
1.10322e-06
1.65284e-05
5.25176e-08
6.41987e-07
1.76086e-05
8.03832e-08
2.31023e-07
1.6852e-05
1.03401e-07
9.9234e-06
8.47913e-08
-3.14256e-07
-5.93831e-06
9.44646e-08
-6.97177e-07
-1.41103e-05
8.14151e-08
-9.78359e-07
-1.88229e-05
8.74784e-08
-1.18534e-06
-2.12361e-05
1.52397e-07
-1.33867e-06
-2.24237e-05
2.16512e-07
-1.41234e-06
-2.30211e-05
2.55778e-07
-1.43905e-06
-2.32506e-05
3.05785e-07
-1.40233e-06
-2.32114e-05
3.44492e-07
-1.28449e-06
-2.29402e-05
3.69082e-07
-1.08694e-06
-2.24465e-05
3.85791e-07
-8.07738e-07
-2.1755e-05
3.98512e-07
-4.70054e-07
-2.08515e-05
4.10259e-07
-1.00656e-07
-1.97443e-05
4.25383e-07
2.85743e-07
-1.8467e-05
4.41795e-07
6.88946e-07
-1.70578e-05
4.66841e-07
1.1158e-06
-1.55478e-05
5.018e-07
1.56543e-06
-1.39524e-05
5.40204e-07
2.02738e-06
-1.22778e-05
5.75615e-07
2.48415e-06
-1.05227e-05
6.05938e-07
2.92094e-06
-8.68748e-06
6.25528e-07
3.3466e-06
-6.78241e-06
6.29147e-07
3.75439e-06
-4.76815e-06
6.13341e-07
4.10277e-06
-2.59405e-06
5.73545e-07
4.32254e-06
-3.07889e-07
5.06719e-07
4.45892e-06
1.52102e-06
4.41514e-07
4.49043e-06
3.52928e-06
3.55444e-07
4.30772e-06
5.5302e-06
2.77201e-07
3.92553e-06
7.47919e-06
2.12399e-07
3.40115e-06
9.5325e-06
1.6114e-07
2.78228e-06
1.19115e-05
1.23355e-07
2.12126e-06
1.46297e-05
1.01192e-07
1.49672e-06
1.70527e-05
1.00122e-07
9.18866e-07
1.80673e-05
1.19009e-07
3.77058e-07
1.72571e-05
1.36499e-07
1.01849e-05
1.15518e-07
2.56726e-08
-5.98897e-06
2.50527e-08
2.77336e-07
-1.43114e-05
-5.05325e-08
7.10034e-07
-1.91665e-05
-8.90045e-08
1.17532e-06
-2.16718e-05
-2.95702e-08
1.58706e-06
-2.2898e-05
6.25262e-08
1.93735e-06
-2.34973e-05
1.25954e-07
2.25459e-06
-2.37321e-05
1.64252e-07
2.55507e-06
-2.37014e-05
1.89536e-07
2.84603e-06
-2.34433e-05
2.12206e-07
3.12018e-06
-2.2948e-05
2.27377e-07
3.34071e-06
-2.22079e-05
2.3237e-07
3.48005e-06
-2.12255e-05
2.34749e-07
3.55942e-06
-2.00637e-05
2.4008e-07
3.59805e-06
-1.87607e-05
2.55041e-07
3.62963e-06
-1.73642e-05
2.74895e-07
3.68607e-06
-1.59036e-05
2.993e-07
3.78427e-06
-1.43847e-05
3.34079e-07
3.93129e-06
-1.28077e-05
3.8296e-07
4.13201e-06
-1.11699e-05
4.46394e-07
4.37693e-06
-9.44963e-06
5.17201e-07
4.64481e-06
-7.62314e-06
5.72814e-07
4.91806e-06
-5.65508e-06
6.13612e-07
5.20239e-06
-3.51081e-06
6.32354e-07
5.43924e-06
-1.16245e-06
6.1763e-07
5.33284e-06
1.05044e-06
5.76886e-07
5.2724e-06
3.0774e-06
5.12209e-07
4.99617e-06
5.37679e-06
4.29516e-07
4.52314e-06
7.61892e-06
3.33185e-07
3.90162e-06
9.89871e-06
2.55181e-07
3.18945e-06
1.24274e-05
1.96159e-07
2.44523e-06
1.52158e-05
1.5799e-07
1.73555e-06
1.76174e-05
1.44849e-07
1.06035e-06
1.85883e-05
1.5413e-07
4.23901e-07
1.77299e-05
1.63485e-07
1.04802e-05
1.28661e-07
2.55671e-07
-6.21039e-06
-3.41444e-08
1.05706e-06
-1.49805e-05
-1.32272e-07
2.13391e-06
-2.00641e-05
-1.79224e-07
3.19765e-06
-2.25804e-05
-1.55117e-07
4.11801e-06
-2.37352e-05
-8.31319e-08
4.87371e-06
-2.42461e-05
-6.82716e-09
5.47093e-06
-2.43876e-05
5.83118e-08
5.93612e-06
-2.42697e-05
1.0312e-07
6.26661e-06
-2.38996e-05
1.25839e-07
6.44393e-06
-2.32598e-05
1.34497e-07
6.43167e-06
-2.23395e-05
1.43915e-07
6.28577e-06
-2.12389e-05
1.59358e-07
6.06798e-06
-2.00145e-05
1.68653e-07
5.82275e-06
-1.86923e-05
1.76936e-07
5.57395e-06
-1.73034e-05
1.88085e-07
5.33605e-06
-1.58693e-05
2.03758e-07
5.12812e-06
-1.43994e-05
2.22791e-07
4.97429e-06
-1.28956e-05
2.41798e-07
4.89558e-06
-1.1357e-05
2.65872e-07
4.90535e-06
-9.7639e-06
3.04572e-07
4.98662e-06
-8.07103e-06
3.66691e-07
5.13423e-06
-6.25087e-06
4.48269e-07
5.33223e-06
-4.22815e-06
5.1945e-07
5.51864e-06
-1.92033e-06
5.71573e-07
5.38916e-06
5.82828e-07
5.97188e-07
5.28868e-06
2.60228e-06
5.75704e-07
5.05514e-06
5.11193e-06
4.98519e-07
4.63275e-06
7.63e-06
4.11424e-07
4.02572e-06
1.01798e-05
3.26022e-07
3.29695e-06
1.29005e-05
2.55744e-07
2.51922e-06
1.57872e-05
2.06459e-07
1.76215e-06
1.81914e-05
1.83178e-07
1.0364e-06
1.91307e-05
1.83452e-07
3.74066e-07
1.82096e-05
1.82802e-07
1.07283e-05
1.25926e-07
5.66987e-07
-6.71294e-06
-6.44046e-08
1.81008e-06
-1.60982e-05
-1.25303e-07
3.24564e-06
-2.13517e-05
-1.47918e-07
4.58219e-06
-2.37673e-05
-1.49564e-07
5.73029e-06
-2.47621e-05
-1.21136e-07
6.6647e-06
-2.51116e-05
-6.89573e-08
7.40103e-06
-2.51081e-05
-1.58474e-08
7.90947e-06
-2.48092e-05
3.11212e-08
8.15543e-06
-2.42057e-05
6.02291e-08
8.16519e-06
-2.33398e-05
7.03525e-08
8.02453e-06
-2.22662e-05
6.74742e-08
7.78546e-06
-2.10474e-05
4.76166e-08
7.45909e-06
-1.97139e-05
2.58851e-08
7.084e-06
-1.8328e-05
1.08844e-08
6.70359e-06
-1.6932e-05
9.05852e-09
6.35018e-06
-1.55385e-05
2.2628e-08
6.03688e-06
-1.41373e-05
5.12793e-08
5.75926e-06
-1.27104e-05
9.24928e-08
5.50999e-06
-1.12439e-05
1.36263e-07
5.29218e-06
-9.72383e-06
1.77833e-07
5.13652e-06
-8.13434e-06
2.19061e-07
5.07273e-06
-6.45021e-06
2.63227e-07
5.07548e-06
-4.56428e-06
3.33493e-07
5.10677e-06
-2.37526e-06
4.23749e-07
5.13073e-06
5.23138e-08
5.06659e-07
5.07405e-06
2.116e-06
5.43071e-07
4.88975e-06
4.76193e-06
5.3442e-07
4.49214e-06
7.5555e-06
4.72226e-07
3.8951e-06
1.03935e-05
3.8349e-07
3.15378e-06
1.33437e-05
2.98246e-07
2.35607e-06
1.63501e-05
2.34883e-07
1.58985e-06
1.87567e-05
2.00981e-07
8.76269e-07
1.96528e-05
1.91564e-07
2.65538e-07
1.86421e-05
1.78314e-07
1.08978e-05
9.61015e-08
7.83776e-07
-7.42422e-06
-7.23917e-08
2.19508e-06
-1.74258e-05
-8.37024e-08
3.63748e-06
-2.27044e-05
-8.96662e-08
4.91261e-06
-2.49287e-05
-1.137e-07
5.99934e-06
-2.5733e-05
-1.15792e-07
6.87784e-06
-2.58927e-05
-9.73095e-08
7.51155e-06
-2.5678e-05
-6.37063e-08
7.87596e-06
-2.51359e-05
-3.75973e-08
8.0147e-06
-2.4318e-05
-2.63582e-08
7.97786e-06
-2.32707e-05
-3.22283e-08
7.78117e-06
-2.20105e-05
-5.89113e-08
7.41847e-06
-2.05855e-05
-9.91057e-08
6.94203e-06
-1.90934e-05
-1.43922e-07
6.41825e-06
-1.7622e-05
-1.82164e-07
5.90699e-06
-1.6216e-05
-2.04554e-07
5.44927e-06
-1.48738e-05
-2.06817e-07
5.06901e-06
-1.35678e-05
-1.89109e-07
4.7748e-06
-1.22624e-05
-1.53631e-07
4.5575e-06
-1.09231e-05
-1.03347e-07
4.39659e-06
-9.51966e-06
-4.31397e-08
4.2694e-06
-8.0283e-06
2.12724e-08
4.17385e-06
-6.43691e-06
8.23925e-08
4.14282e-06
-4.68682e-06
1.53733e-07
4.20229e-06
-2.67554e-06
2.41006e-07
4.3233e-06
-4.10004e-07
3.41513e-07
4.34388e-06
1.68084e-06
4.14811e-07
4.23592e-06
4.4031e-06
4.67025e-07
3.91461e-06
7.41619e-06
4.60823e-07
3.38576e-06
1.05221e-05
4.00414e-07
2.70216e-06
1.371e-05
3.17436e-07
1.95511e-06
1.68503e-05
2.46975e-07
1.24805e-06
1.92591e-05
2.04834e-07
6.13374e-07
2.01014e-05
1.86234e-07
1.19356e-07
1.89764e-05
1.59938e-07
1.09491e-05
6.80747e-08
8.57708e-07
-8.23697e-06
-4.49347e-08
2.09782e-06
-1.86769e-05
1.10543e-08
3.08684e-06
-2.37102e-05
1.68e-08
3.8328e-06
-2.56356e-05
-3.90512e-08
4.42454e-06
-2.62474e-05
-7.73112e-08
4.8962e-06
-2.62688e-05
-9.55173e-08
5.21593e-06
-2.58988e-05
-9.89314e-08
5.38516e-06
-2.51994e-05
-1.05703e-07
5.38756e-06
-2.42089e-05
-1.11537e-07
5.19636e-06
-2.29488e-05
-1.30635e-07
4.83617e-06
-2.14822e-05
-1.68021e-07
4.38501e-06
-1.9914e-05
-2.20242e-07
3.91982e-06
-1.83508e-05
-2.77354e-07
3.49251e-06
-1.68667e-05
-3.27917e-07
3.12879e-06
-1.54892e-05
-3.6302e-07
2.83065e-06
-1.41972e-05
-3.78387e-07
2.59705e-06
-1.29594e-05
-3.7482e-07
2.42525e-06
-1.17362e-05
-3.54347e-07
2.31177e-06
-1.04907e-05
-3.1889e-07
2.24942e-06
-9.18765e-06
-2.6959e-07
2.22676e-06
-7.79788e-06
-2.07699e-07
2.25551e-06
-6.32689e-06
-1.38692e-07
2.35043e-06
-4.72545e-06
-5.62073e-08
2.54531e-06
-2.90787e-06
3.75511e-08
2.82665e-06
-8.35909e-07
1.44678e-07
2.9347e-06
1.33508e-06
2.3782e-07
2.99867e-06
4.00857e-06
3.30673e-07
2.85423e-06
7.18397e-06
3.76789e-07
2.491e-06
1.05358e-05
3.49667e-07
1.93398e-06
1.39663e-05
3.00782e-07
1.30183e-06
1.72472e-05
2.35388e-07