/*--------------------------------*- C++ -*----------------------------------*\
| =========                 |                                                 |
| \\      /  F ield         | OpenFOAM: The Open Source CFD Toolbox           |
|  \\    /   O peration     | Version:  2.0.x                                 |
|   \\  /    A nd           | Web:      www.OpenFOAM.org                      |
|    \\/     M anipulation  |                                                 |
\*---------------------------------------------------------------------------*/
FoamFile
{
    version     2.0;
    format      ascii;
    class       volScalarField;
    location    "850";
    object      T;
}
// * * * * * * * * * * * * * * * * * * * * * * * * * * * * * * * * * * * * * //

dimensions      [0 0 0 1 0 0 0];

internalField   nonuniform List<scalar> 
78750
(
288.603
289.208
289.556
289.772
289.914
290.017
290.102
290.18
290.253
290.319
290.382
290.44
290.494
290.543
290.589
290.631
290.669
290.703
290.736
290.765
290.792
290.817
290.838
290.857
290.873
290.885
290.897
290.907
290.918
290.929
290.958
291.104
291.816
294.388
301.658
288.391
288.774
289.07
289.337
289.574
289.78
289.96
290.119
290.259
290.387
290.505
290.612
290.707
290.792
290.868
290.936
290.996
291.049
291.095
291.134
291.167
291.194
291.215
291.231
291.241
291.246
291.244
291.232
291.21
291.193
291.2
291.318
292.14
294.924
301.935
288.425
288.939
289.398
289.802
290.144
290.426
290.664
290.866
291.04
291.192
291.325
291.44
291.535
291.611
291.669
291.71
291.735
291.749
291.751
291.749
291.743
291.734
291.722
291.706
291.686
291.66
291.632
291.597
291.557
291.529
291.553
291.834
293.112
296.127
302.34
288.507
289.198
289.799
290.272
290.615
290.869
291.073
291.246
291.397
291.53
291.647
291.746
291.825
291.882
291.918
291.934
291.935
291.93
291.921
291.911
291.899
291.887
291.873
291.856
291.838
291.816
291.79
291.763
291.742
291.754
291.891
292.479
294.155
297.247
302.923
288.588
289.406
290.046
290.47
290.752
290.968
291.154
291.323
291.48
291.626
291.759
291.874
291.963
292.017
292.042
292.048
292.045
292.037
292.028
292.018
292.008
291.997
291.985
291.971
291.955
291.937
291.916
291.898
291.9
291.953
292.216
293.04
294.939
298.065
303.456
288.629
289.488
290.117
290.524
290.802
291.023
291.218
291.394
291.557
291.705
291.838
291.954
292.052
292.13
292.176
292.193
292.193
292.184
292.172
292.159
292.146
292.132
292.118
292.104
292.091
292.078
292.067
292.068
292.099
292.231
292.63
293.654
295.657
298.775
303.955
288.641
289.498
290.123
290.527
290.804
291.025
291.22
291.397
291.559
291.707
291.84
291.956
292.055
292.136
292.198
292.234
292.246
292.243
292.237
292.229
292.22
292.212
292.205
292.198
292.194
292.192
292.198
292.223
292.296
292.491
292.991
294.143
296.196
299.273
304.257
288.642
289.494
290.111
290.51
290.784
291.002
291.195
291.37
291.531
291.679
291.814
291.935
292.041
292.132
292.206
292.268
292.315
292.345
292.354
292.352
292.345
292.337
292.331
292.327
292.326
292.332
292.35
292.394
292.501
292.755
293.351
294.61
296.684
299.703
304.508
288.621
289.434
290.03
290.422
290.692
290.906
291.094
291.264
291.423
291.571
291.709
291.838
291.957
292.064
292.16
292.242
292.31
292.362
292.402
292.424
292.432
292.435
292.436
292.438
292.444
292.458
292.487
292.548
292.679
292.972
293.626
294.949
297.029
299.996
304.661
288.598
289.384
289.977
290.378
290.654
290.872
291.062
291.235
291.395
291.544
291.68
291.806
291.92
292.023
292.116
292.201
292.278
292.347
292.406
292.456
292.495
292.52
292.536
292.548
292.563
292.585
292.626
292.703
292.859
293.194
293.909
295.293
297.364
300.265
304.802
288.59
289.373
289.971
290.375
290.653
290.872
291.065
291.242
291.406
291.558
291.698
291.826
291.94
292.04
292.128
292.205
292.274
292.338
292.398
292.456
292.512
292.562
292.6
292.631
292.66
292.694
292.745
292.836
293.012
293.376
294.136
295.563
297.617
300.456
304.897
288.585
289.369
289.982
290.404
290.693
290.921
291.123
291.309
291.483
291.647
291.798
291.933
292.051
292.15
292.231
292.297
292.352
292.4
292.444
292.489
292.539
292.593
292.645
292.693
292.739
292.789
292.856
292.964
293.164
293.567
294.379
295.851
297.877
300.647
304.998
288.601
289.416
290.051
290.483
290.782
291.02
291.233
291.431
291.618
291.794
291.957
292.103
292.228
292.329
292.403
292.46
292.503
292.535
292.561
292.586
292.615
292.653
292.698
292.75
292.808
292.873
292.956
293.083
293.31
293.752
294.615
296.126
298.118
300.813
305.087
288.617
289.448
290.072
290.501
290.803
291.047
291.264
291.466
291.658
291.84
292.01
292.166
292.307
292.43
292.535
292.612
292.663
292.694
292.713
292.726
292.739
292.758
292.788
292.832
292.891
292.965
293.064
293.216
293.479
293.972
294.897
296.445
298.386
300.992
305.185
288.624
289.452
290.073
290.497
290.797
291.041
291.258
291.461
291.652
291.834
292.004
292.16
292.302
292.428
292.538
292.633
292.713
292.78
292.828
292.856
292.868
292.88
292.899
292.932
292.986
293.064
293.176
293.351
293.65
294.193
295.173
296.747
298.628
301.139
305.257
288.62
289.429
290.023
290.428
290.718
290.955
291.168
291.364
291.55
291.727
291.895
292.056
292.207
292.348
292.477
292.593
292.693
292.777
292.849
292.909
292.958
292.989
293.012
293.043
293.092
293.17
293.292
293.487
293.818
294.407
295.436
297.024
298.845
301.264
305.311
288.595
289.359
289.924
290.312
290.587
290.807
291.001
291.181
291.352
291.516
291.677
291.837
291.996
292.15
292.3
292.443
292.577
292.697
292.803
292.892
292.967
293.031
293.088
293.137
293.194
293.277
293.408
293.619
293.978
294.606
295.675
297.265
299.029
301.368
305.35
288.573
289.314
289.883
290.278
290.551
290.761
290.94
291.104
291.257
291.402
291.541
291.675
291.808
291.945
292.085
292.228
292.375
292.523
292.66
292.786
292.901
293.002
293.094
293.178
293.261
293.359
293.5
293.724
294.102
294.757
295.853
297.441
299.164
301.443
305.37
288.568
289.31
289.88
290.278
290.552
290.762
290.942
291.105
291.258
291.403
291.541
291.673
291.799
291.919
292.033
292.144
292.252
292.363
292.489
292.622
292.759
292.892
293.023
293.148
293.269
293.4
293.569
293.815
294.215
294.898
296.018
297.6
299.289
301.522
305.394
288.569
289.325
289.917
290.332
290.613
290.826
291.007
291.172
291.328
291.476
291.618
291.75
291.87
291.977
292.075
292.167
292.257
292.349
292.443
292.542
292.648
292.77
292.906
293.057
293.22
293.39
293.588
293.865
294.29
294.993
296.13
297.708
299.376
301.58
305.414
288.596
289.411
290.058
290.504
290.801
291.024
291.216
291.393
291.562
291.725
291.875
292.004
292.109
292.191
292.255
292.309
292.362
292.419
292.483
292.556
292.641
292.737
292.851
292.99
293.158
293.351
293.585
293.895
294.353
295.087
296.245
297.821
299.473
301.654
305.447
288.634
289.525
290.234
290.719
291.045
291.296
291.516
291.721
291.918
292.102
292.262
292.389
292.477
292.529
292.555
292.568
292.578
292.593
292.618
292.656
292.708
292.777
292.866
292.983
293.133
293.323
293.573
293.919
294.418
295.19
296.374
297.949
299.582
301.74
305.488
288.674
289.633
290.381
290.89
291.24
291.521
291.775
292.014
292.237
292.441
292.615
292.744
292.818
292.851
292.853
292.841
292.827
292.816
292.816
292.829
292.855
292.898
292.96
293.051
293.176
293.348
293.595
293.956
294.487
295.298
296.512
298.085
299.699
301.835
305.538
288.717
289.731
290.486
290.972
291.313
291.597
291.856
292.101
292.331
292.542
292.727
292.88
292.993
293.045
293.058
293.053
293.039
293.027
293.02
293.024
293.041
293.071
293.118
293.188
293.289
293.439
293.671
294.036
294.593
295.44
296.681
298.247
299.838
301.95
305.595
288.737
289.75
290.493
290.975
291.315
291.598
291.857
292.103
292.334
292.544
292.728
292.883
293.009
293.108
293.171
293.195
293.204
293.204
293.206
293.213
293.229
293.257
293.299
293.361
293.452
293.589
293.808
294.169
294.743
295.62
296.882
298.43
299.994
302.079
305.656
288.737
289.746
290.474
290.946
291.281
291.564
291.824
292.068
292.294
292.502
292.69
292.854
292.994
293.107
293.201
293.28
293.33
293.354
293.371
293.387
293.407
293.437
293.479
293.539
293.626
293.757
293.967
294.322
294.906
295.807
297.083
298.606
300.141
302.2
305.705
288.715
289.68
290.369
290.819
291.143
291.415
291.662
291.894
292.115
292.326
292.527
292.716
292.889
293.043
293.175
293.282
293.373
293.452
293.506
293.541
293.572
293.607
293.652
293.713
293.8
293.93
294.136
294.487
295.076
295.99
297.268
298.759
300.262
302.293
305.737
288.682
289.591
290.245
290.674
290.977
291.226
291.453
291.668
291.878
292.086
292.292
292.492
292.686
292.873
293.047
293.204
293.341
293.454
293.551
293.638
293.704
293.756
293.809
293.874
293.962
294.089
294.29
294.632
295.214
296.132
297.413
298.88
300.359
302.367
305.759
288.666
289.557
290.211
290.643
290.944
291.186
291.4
291.598
291.782
291.956
292.13
292.309
292.49
292.674
292.859
293.038
293.211
293.371
293.515
293.638
293.747
293.847
293.932
294.014
294.111
294.242
294.445
294.785
295.364
296.283
297.561
299.002
300.457
302.44
305.782
288.658
289.542
290.198
290.635
290.938
291.181
291.397
291.594
291.777
291.95
292.114
292.271
292.423
292.571
292.724
292.886
293.056
293.228
293.398
293.562
293.714
293.849
293.975
294.096
294.218
294.365
294.579
294.928
295.51
296.427
297.697
299.113
300.543
302.502
305.802
288.645
289.509
290.16
290.602
290.912
291.16
291.379
291.581
291.768
291.945
292.112
292.27
292.421
292.566
292.706
292.844
292.98
293.126
293.283
293.451
293.621
293.791
293.955
294.114
294.275
294.454
294.69
295.054
295.642
296.56
297.822
299.216
300.623
302.558
305.819
288.637
289.497
290.153
290.598
290.909
291.157
291.376
291.577
291.766
291.944
292.113
292.273
292.425
292.57
292.709
292.844
292.977
293.11
293.245
293.387
293.543
293.714
293.897
294.089
294.289
294.506
294.776
295.166
295.77
296.692
297.946
299.318
300.703
302.616
305.839
288.636
289.496
290.155
290.606
290.92
291.17
291.39
291.593
291.785
291.967
292.14
292.304
292.459
292.605
292.742
292.873
292.999
293.124
293.251
293.384
293.526
293.681
293.856
294.056
294.279
294.528
294.833
295.252
295.874
296.801
298.047
299.402
300.769
302.66
305.854
288.638
289.509
290.182
290.644
290.965
291.219
291.442
291.65
291.847
292.034
292.212
292.38
292.537
292.683
292.819
292.946
293.066
293.182
293.298
293.418
293.547
293.69
293.854
294.048
294.274
294.54
294.872
295.318
295.958
296.891
298.133
299.474
300.826
302.7
305.869
288.652
289.547
290.236
290.705
291.032
291.292
291.521
291.734
291.936
292.128
292.31
292.482
292.643
292.792
292.929
293.056
293.173
293.284
293.392
293.501
293.617
293.747
293.898
294.08
294.303
294.577
294.931
295.407
296.075
297.022
298.258
299.577
300.911
302.768
305.897
288.663
289.577
290.278
290.753
291.085
291.35
291.586
291.805
292.012
292.209
292.397
292.575
292.741
292.897
293.039
293.17
293.29
293.401
293.507
293.613
293.722
293.841
293.978
294.148
294.36
294.633
295.001
295.506
296.204
297.168
298.396
299.685
300.995
302.836
305.925
288.671
289.598
290.307
290.785
291.119
291.388
291.628
291.852
292.063
292.266
292.46
292.644
292.818
292.981
293.13
293.268
293.394
293.511
293.621
293.727
293.835
293.95
294.08
294.237
294.438
294.705
295.076
295.597
296.318
297.298
298.521
299.782
301.072
302.899
305.951
288.685
289.635
290.353
290.831
291.165
291.435
291.678
291.904
292.12
292.327
292.525
292.713
292.891
293.059
293.214
293.357
293.49
293.612
293.728
293.839
293.95
294.066
294.194
294.346
294.537
294.795
295.168
295.702
296.445
297.437
298.649
299.879
301.147
302.963
305.977
288.698
289.668
290.396
290.876
291.212
291.486
291.732
291.963
292.182
292.392
292.593
292.784
292.965
293.135
293.295
293.443
293.581
293.71
293.831
293.948
294.064
294.184
294.315
294.465
294.649
294.895
295.256
295.789
296.54
297.541
298.745
299.95
301.201
303.007
305.994
288.705
289.683
290.414
290.896
291.234
291.511
291.762
291.997
292.22
292.433
292.636
292.83
293.014
293.189
293.355
293.51
293.656
293.793
293.923
294.048
294.172
294.3
294.437
294.595
294.785
295.032
295.388
295.917
296.674
297.683
298.879
300.051
301.283
303.086
306.028
288.71
289.696
290.429
290.908
291.244
291.521
291.773
292.008
292.232
292.445
292.649
292.844
293.03
293.209
293.38
293.543
293.698
293.846
293.987
294.124
294.258
294.396
294.544
294.716
294.927
295.204
295.589
296.139
296.907
297.913
299.077
300.197
301.397
303.19
306.073
288.716
289.714
290.454
290.934
291.27
291.547
291.799
292.034
292.257
292.468
292.668
292.859
293.041
293.217
293.388
293.553
293.714
293.869
294.02
294.167
294.313
294.46
294.617
294.796
295.019
295.317
295.738
296.327
297.118
298.117
299.239
300.312
301.479
303.248
306.088
288.721
289.73
290.478
290.965
291.306
291.589
291.846
292.087
292.313
292.524
292.722
292.908
293.083
293.251
293.414
293.574
293.731
293.887
294.041
294.195
294.35
294.507
294.672
294.853
295.067
295.35
295.759
296.354
297.163
298.174
299.293
300.35
301.503
303.259
306.087
288.727
289.746
290.501
290.992
291.338
291.628
291.894
292.144
292.378
292.595
292.795
292.979
293.149
293.311
293.466
293.618
293.768
293.92
294.072
294.228
294.388
294.556
294.734
294.927
295.144
295.413
295.793
296.361
297.168
298.189
299.315
300.366
301.512
303.271
306.091
288.736
289.769
290.529
291.021
291.37
291.665
291.937
292.195
292.437
292.661
292.865
293.05
293.22
293.378
293.528
293.675
293.82
293.967
294.117
294.273
294.438
294.616
294.811
295.026
295.264
295.552
295.943
296.509
297.307
298.328
299.436
300.456
301.584
303.342
306.122
288.744
289.788
290.554
291.049
291.401
291.7
291.979
292.244
292.495
292.725
292.934
293.121
293.29
293.446
293.593
293.736
293.877
294.02
294.168
294.325
294.494
294.681
294.893
295.132
295.404
295.734
296.167
296.764
297.579
298.589
299.649
300.618
301.719
303.463
306.176
288.751
289.804
290.574
291.071
291.426
291.731
292.017
292.291
292.549
292.786
293
293.189
293.359
293.513
293.658
293.797
293.935
294.074
294.22
294.377
294.55
294.747
294.979
295.251
295.567
295.943
296.418
297.049
297.874
298.856
299.851
300.768
301.848
303.581
306.228
288.758
289.82
290.593
291.091
291.449
291.759
292.051
292.332
292.599
292.844
293.063
293.255
293.426
293.579
293.721
293.858
293.992
294.128
294.27
294.425
294.599
294.804
295.054
295.36
295.726
296.154
296.668
297.317
298.133
299.075
300.012
300.891
301.954
303.678
306.268
288.763
289.829
290.605
291.105
291.466
291.78
292.077
292.365
292.64
292.893
293.119
293.317
293.49
293.643
293.784
293.917
294.048
294.18
294.317
294.466
294.634
294.834
295.086
295.412
295.822
296.311
296.876
297.549
298.357
299.26
300.151
300.997
302.04
303.735
306.279
288.763
289.831
290.606
291.107
291.47
291.786
292.087
292.38
292.661
292.924
293.16
293.367
293.546
293.703
293.845
293.977
294.105
294.232
294.363
294.503
294.66
294.843
295.072
295.381
295.795
296.311
296.911
297.609
298.417
299.303
300.179
301.013
302.04
303.729
306.275
288.763
289.831
290.608
291.109
291.471
291.788
292.09
292.385
292.67
292.939
293.185
293.402
293.591
293.755
293.901
294.036
294.163
294.289
294.416
294.549
294.694
294.856
295.046
295.291
295.633
296.114
296.745
297.488
298.323
299.22
300.099
300.929
301.941
303.614
306.216
288.763
289.833
290.612
291.113
291.477
291.794
292.096
292.39
292.677
292.951
293.204
293.431
293.629
293.802
293.955
294.093
294.223
294.35
294.477
294.609
294.749
294.901
295.07
295.266
295.518
295.879
296.404
297.109
297.965
298.916
299.868
300.759
301.789
303.451
306.137
288.762
289.836
290.614
291.115
291.478
291.795
292.097
292.39
292.677
292.954
293.217
293.455
293.664
293.846
294.007
294.151
294.286
294.416
294.546
294.682
294.826
294.982
295.15
295.328
295.538
295.833
296.273
296.912
297.761
298.764
299.797
300.734
301.775
303.433
306.133
288.765
289.842
290.618
291.116
291.479
291.795
292.096
292.39
292.676
292.954
293.218
293.468
293.693
293.887
294.057
294.209
294.35
294.486
294.622
294.766
294.923
295.097
295.285
295.483
295.7
295.956
296.324
296.916
297.764
298.784
299.84
300.771
301.812
303.488
306.164
288.77
289.85
290.62
291.116
291.478
291.795
292.095
292.386
292.672
292.95
293.217
293.469
293.703
293.916
294.1
294.261
294.409
294.551
294.695
294.85
295.024
295.225
295.458
295.722
296.015
296.346
296.764
297.348
298.181
299.203
300.181
301.054
302.08
303.744
306.284
288.773
289.851
290.62
291.112
291.469
291.78
292.075
292.362
292.643
292.92
293.192
293.455
293.702
293.926
294.126
294.301
294.456
294.603
294.752
294.913
295.102
295.334
295.627
295.988
296.397
296.842
297.353
297.995
298.806
299.715
300.573
301.375
302.38
304.017
306.403
288.774
289.85
290.613
291.102
291.457
291.766
292.056
292.336
292.61
292.88
293.148
293.413
293.67
293.912
294.129
294.318
294.485
294.637
294.787
294.947
295.136
295.376
295.696
296.119
296.622
297.165
297.755
298.428
299.202
300.019
300.787
301.541
302.522
304.121
306.431
288.771
289.839
290.6
291.086
291.439
291.743
292.027
292.3
292.565
292.827
293.088
293.351
293.612
293.865
294.102
294.313
294.496
294.657
294.807
294.96
295.128
295.339
295.636
296.056
296.593
297.194
297.837
298.533
299.289
300.067
300.811
301.557
302.524
304.114
306.425
288.764
289.823
290.582
291.068
291.419
291.719
291.998
292.263
292.519
292.77
293.02
293.274
293.533
293.794
294.045
294.278
294.485
294.663
294.821
294.969
295.118
295.286
295.503
295.814
296.267
296.882
297.605
298.377
299.17
299.956
300.703
301.442
302.392
303.974
306.355
288.757
289.811
290.569
291.055
291.404
291.701
291.974
292.233
292.481
292.723
292.963
293.206
293.455
293.712
293.972
294.224
294.454
294.655
294.832
294.989
295.137
295.284
295.447
295.652
295.941
296.366
296.958
297.697
298.528
299.389
300.218
301.012
301.975
303.571
306.175
288.753
289.807
290.566
291.054
291.403
291.697
291.966
292.218
292.459
292.692
292.921
293.153
293.392
293.641
293.9
294.163
294.415
294.643
294.845
295.023
295.184
295.333
295.484
295.652
295.864
296.153
296.568
297.163
297.944
298.863
299.823
300.737
301.754
303.357
306.084
288.751
289.804
290.566
291.054
291.402
291.696
291.964
292.213
292.449
292.674
292.895
293.116
293.344
293.584
293.838
294.105
294.373
294.627
294.859
295.065
295.25
295.421
295.592
295.767
295.951
296.177
296.519
297.032
297.77
298.717
299.756
300.711
301.739
303.35
306.085
288.752
289.808
290.57
291.058
291.407
291.7
291.966
292.214
292.447
292.669
292.883
293.092
293.308
293.536
293.783
294.048
294.326
294.602
294.862
295.102
295.321
295.529
295.743
295.967
296.201
296.451
296.746
297.187
297.881
298.842
299.896
300.836
301.858
303.483
306.153
288.755
289.817
290.581
291.069
291.417
291.709
291.975
292.221
292.453
292.673
292.883
293.089
293.293
293.508
293.74
293.996
294.273
294.562
294.847
295.117
295.372
295.623
295.89
296.183
296.504
296.86
297.272
297.799
298.519
299.43
300.372
301.221
302.201
303.793
306.289
288.76
289.829
290.597
291.087
291.436
291.728
291.992
292.237
292.466
292.683
292.89
293.092
293.291
293.493
293.71
293.95
294.216
294.502
294.798
295.09
295.372
295.655
295.958
296.303
296.7
297.156
297.679
298.298
299.044
299.894
300.727
301.503
302.446
303.999
306.371
288.763
289.837
290.611
291.105
291.457
291.751
292.017
292.262
292.49
292.703
292.906
293.101
293.294
293.491
293.694
293.914
294.163
294.436
294.729
295.028
295.324
295.623
295.94
296.303
296.732
297.239
297.827
298.504
299.269
300.084
300.868
301.613
302.537
304.061
306.389
288.766
289.845
290.626
291.123
291.478
291.775
292.044
292.292
292.523
292.736
292.936
293.126
293.312
293.499
293.694
293.904
294.13
294.385
294.666
294.961
295.26
295.559
295.874
296.233
296.668
297.194
297.813
298.517
299.296
300.106
300.879
301.619
302.54
304.061
306.387
288.769
289.856
290.644
291.146
291.504
291.804
292.077
292.328
292.561
292.777
292.977
293.166
293.346
293.525
293.709
293.906
294.122
294.361
294.623
294.907
295.201
295.497
295.803
296.143
296.548
297.047
297.657
298.378
299.176
299.994
300.771
301.519
302.445
303.972
306.345
288.773
289.87
290.665
291.173
291.534
291.839
292.116
292.372
292.608
292.826
293.028
293.216
293.394
293.568
293.744
293.93
294.133
294.36
294.612
294.886
295.173
295.465
295.77
296.101
296.482
296.947
297.522
298.216
299.006
299.841
300.65
301.422
302.355
303.886
306.308
288.777
289.882
290.684
291.196
291.562
291.872
292.154
292.415
292.657
292.879
293.083
293.272
293.449
293.62
293.792
293.97
294.163
294.377
294.618
294.885
295.17
295.464
295.77
296.099
296.474
296.927
297.486
298.168
298.958
299.806
300.63
301.408
302.34
303.871
306.301
288.781
289.896
290.704
291.219
291.588
291.903
292.19
292.457
292.704
292.931
293.138
293.329
293.508
293.678
293.846
294.018
294.203
294.408
294.638
294.898
295.181
295.482
295.8
296.14
296.515
296.957
297.499
298.168
298.958
299.809
300.637
301.414
302.347
303.879
306.307
288.786
289.908
290.721
291.24
291.614
291.933
292.225
292.497
292.749
292.981
293.193
293.387
293.567
293.737
293.903
294.072
294.25
294.446
294.667
294.917
295.196
295.5
295.829
296.188
296.59
297.056
297.617
298.292
299.076
299.918
300.727
301.488
302.41
303.932
306.33
288.789
289.916
290.734
291.256
291.633
291.958
292.256
292.534
292.791
293.028
293.244
293.442
293.625
293.796
293.962
294.128
294.301
294.489
294.699
294.936
295.203
295.5
295.83
296.196
296.611
297.097
297.678
298.369
299.156
299.983
300.773
301.525
302.444
303.957
306.337
288.791
289.924
290.744
291.268
291.648
291.977
292.281
292.565
292.828
293.071
293.293
293.496
293.682
293.856
294.023
294.189
294.36
294.545
294.746
294.97
295.218
295.496
295.81
296.166
296.575
297.056
297.638
298.332
299.121
299.945
300.734
301.488
302.413
303.933
306.327
288.793
289.931
290.754
291.279
291.661
291.995
292.304
292.594
292.864
293.112
293.34
293.547
293.738
293.915
294.085
294.253
294.426
294.611
294.812
295.03
295.263
295.517
295.811
296.153
296.544
297.002
297.555
298.224
299
299.827
300.628
301.395
302.326
303.858
306.294
288.796
289.938
290.761
291.285
291.67
292.006
292.32
292.615
292.891
293.147
293.38
293.594
293.789
293.97
294.143
294.314
294.49
294.68
294.89
295.117
295.358
295.615
295.891
296.195
296.553
296.999
297.544
298.207
298.981
299.811
300.614
301.38
302.313
303.851
306.292
288.8
289.946
290.768
291.291
291.676
292.015
292.332
292.631
292.912
293.173
293.412
293.632
293.832
294.019
294.195
294.37
294.55
294.747
294.97
295.219
295.489
295.773
296.064
296.364
296.689
297.071
297.564
298.211
298.984
299.813
300.615
301.38
302.314
303.854
306.298
288.803
289.95
290.771
291.294
291.68
292.02
292.339
292.642
292.926
293.192
293.436
293.66
293.866
294.057
294.236
294.412
294.593
294.793
295.024
295.295
295.602
295.931
296.264
296.595
296.937
297.317
297.782
298.367
299.087
299.876
300.645
301.396
302.335
303.888
306.319
288.804
289.952
290.773
291.295
291.682
292.024
292.344
292.649
292.937
293.205
293.454
293.683
293.893
294.087
294.267
294.441
294.619
294.813
295.039
295.315
295.644
296.014
296.402
296.791
297.183
297.599
298.078
298.654
299.333
300.065
300.782
301.5
302.419
303.957
306.344
288.804
289.952
290.773
291.296
291.683
292.026
292.348
292.655
292.945
293.216
293.469
293.702
293.917
294.114
294.296
294.468
294.64
294.823
295.034
295.296
295.623
296.012
296.432
296.872
297.325
297.798
298.315
298.901
299.557
300.249
300.929
301.619
302.514
304.022
306.364
288.803
289.951
290.773
291.298
291.685
292.028
292.351
292.659
292.951
293.226
293.482
293.719
293.938
294.139
294.325
294.497
294.665
294.836
295.026
295.256
295.551
295.926
296.373
296.855
297.341
297.853
298.406
299.013
299.668
300.341
301.004
301.682
302.564
304.048
306.367
288.802
289.95
290.774
291.299
291.688
292.032
292.356
292.665
292.958
293.234
293.493
293.734
293.958
294.163
294.352
294.528
294.694
294.859
295.032
295.231
295.478
295.802
296.215
296.708
297.255
297.822
298.405
299.021
299.678
300.348
301.008
301.686
302.567
304.047
306.363
288.801
289.95
290.776
291.304
291.693
292.037
292.362
292.672
292.966
293.244
293.505
293.75
293.978
294.189
294.383
294.563
294.731
294.894
295.059
295.239
295.455
295.73
296.088
296.539
297.072
297.66
298.289
298.95
299.627
300.306
300.972
301.657
302.542
304.016
306.347
288.802
289.955
290.784
291.313
291.703
292.049
292.375
292.685
292.979
293.257
293.52
293.768
294
294.216
294.416
294.601
294.774
294.94
295.104
295.278
295.477
295.725
296.044
296.449
296.946
297.52
298.154
298.832
299.535
300.234
300.917
301.614
302.51
303.998
306.341
288.804
289.963
290.795
291.325
291.716
292.063
292.39
292.7
292.995
293.274
293.538
293.789
294.025
294.247
294.453
294.645
294.826
294.997
295.165
295.341
295.537
295.769
296.061
296.442
296.917
297.481
298.118
298.806
299.518
300.224
300.909
301.61
302.51
304.001
306.344
288.809
289.975
290.81
291.34
291.733
292.081
292.408
292.719
293.013
293.292
293.556
293.808
294.048
294.275
294.488
294.688
294.876
295.055
295.232
295.418
295.622
295.857
296.142
296.495
296.942
297.489
298.121
298.81
299.522
300.228
300.912
301.613
302.519
304.022
306.357
288.814
289.988
290.825
291.357
291.751
292.1
292.429
292.74
293.034
293.311
293.575
293.828
294.07
294.301
294.519
294.725
294.92
295.108
295.295
295.491
295.707
295.955
296.251
296.611
297.051
297.581
298.196
298.875
299.58
300.275
300.949
301.648
302.56
304.07
306.38
288.819
290.001
290.842
291.375
291.77
292.12
292.449
292.76
293.054
293.33
293.592
293.844
294.088
294.323
294.547
294.758
294.959
295.153
295.349
295.554
295.782
296.046
296.361
296.738
297.189
297.718
298.323
298.984
299.667
300.339
300.998
301.691
302.609
304.12
306.402
288.824
290.012
290.856
291.39
291.787
292.139
292.468
292.779
293.07
293.344
293.604
293.854
294.097
294.335
294.565
294.784
294.991
295.19
295.39
295.6
295.835
296.111
296.443
296.841
297.308
297.844
298.442
299.082
299.738
300.388
301.032
301.715
302.618
304.122
306.403
288.827
290.02
290.867
291.405
291.802
292.155
292.485
292.795
293.083
293.353
293.609
293.856
294.097
294.336
294.569
294.792
295.004
295.207
295.409
295.619
295.853
296.127
296.462
296.868
297.346
297.89
298.485
299.115
299.761
300.401
301.038
301.715
302.618
304.119
306.399
288.828
290.024
290.877
291.418
291.818
292.173
292.503
292.812
293.099
293.364
293.614
293.855
294.093
294.329
294.562
294.788
295.004
295.21
295.411
295.618
295.843
296.106
296.427
296.825
297.305
297.855
298.459
299.094
299.74
300.379
301.015
301.695
302.601
304.104
306.39
288.829
290.03
290.889
291.435
291.838
292.195
292.528
292.838
293.122
293.385
293.63
293.865
294.096
294.328
294.559
294.787
295.005
295.212
295.414
295.618
295.835
296.078
296.367
296.73
297.181
297.717
298.318
298.957
299.607
300.252
300.895
301.584
302.5
304.023
306.358
288.83
290.037
290.902
291.452
291.859
292.22
292.556
292.867
293.15
293.409
293.65
293.881
294.108
294.336
294.566
294.794
295.013
295.223
295.428
295.633
295.843
296.073
296.338
296.66
297.065
297.564
298.142
298.773
299.428
300.089
300.75
301.448
302.367
303.903
306.306
288.832
290.046
290.918
291.473
291.885
292.251
292.592
292.904
293.188
293.444
293.682
293.908
294.13
294.355
294.584
294.813
295.035
295.251
295.463
295.671
295.879
296.096
296.341
296.641
297.01
297.47
298.021
298.645
299.314
299.998
300.676
301.378
302.294
303.835
306.274
288.836
290.059
290.936
291.496
291.913
292.286
292.632
292.948
293.231
293.486
293.72
293.943
294.162
294.385
294.614
294.845
295.073
295.298
295.52
295.735
295.946
296.16
296.391
296.661
297.008
297.448
297.987
298.612
299.292
299.986
300.667
301.37
302.285
303.829
306.272
288.842
290.076
290.958
291.521
291.944
292.325
292.678
292.998
293.283
293.536
293.767
293.986
294.202
294.423
294.653
294.887
295.123
295.359
295.594
295.823
296.046
296.268
296.501
296.762
297.075
297.477
297.993
298.614
299.296
299.991
300.671
301.373
302.291
303.841
306.28
288.849
290.096
290.983
291.55
291.979
292.368
292.73
293.056
293.341
293.592
293.82
294.035
294.248
294.467
294.696
294.934
295.176
295.423
295.672
295.919
296.163
296.407
296.66
296.937
297.261
297.659
298.158
298.756
299.42
300.095
300.754
301.442
302.355
303.902
306.308
288.857
290.116
291.009
291.579
292.016
292.416
292.787
293.118
293.404
293.653
293.877
294.088
294.298
294.514
294.742
294.979
295.224
295.477
295.738
296.002
296.269
296.542
296.829
297.14
297.495
297.915
298.418
299
299.63
300.265
300.892
301.557
302.455
303.983
306.342
288.864
290.137
291.036
291.61
292.054
292.467
292.849
293.186
293.473
293.719
293.939
294.147
294.353
294.567
294.791
295.025
295.268
295.52
295.783
296.056
296.339
296.636
296.952
297.299
297.689
298.137
298.65
299.221
299.822
300.424
301.026
301.674
302.557
304.058
306.37
288.872
290.161
291.064
291.643
292.096
292.521
292.914
293.256
293.544
293.788
294.004
294.208
294.413
294.624
294.845
295.074
295.311
295.558
295.819
296.092
296.38
296.686
297.018
297.387
297.802
298.272
298.796
299.361
299.946
300.529
301.116
301.758
302.636
304.121
306.393
288.882
290.187
291.096
291.68
292.143
292.582
292.986
293.334
293.622
293.865
294.078
294.28
294.484
294.696
294.917
295.145
295.379
295.622
295.878
296.147
296.431
296.737
297.073
297.449
297.875
298.354
298.882
299.442
300.015
300.586
301.165
301.803
302.683
304.162
306.41
288.894
290.22
291.133
291.72
292.194
292.645
293.059
293.413
293.703
293.945
294.158
294.362
294.57
294.788
295.013
295.243
295.478
295.722
295.974
296.237
296.515
296.816
297.149
297.524
297.949
298.427
298.95
299.502
300.064
300.627
301.202
301.839
302.719
304.197
306.425
288.909
290.258
291.173
291.764
292.246
292.708
293.13
293.488
293.78
294.022
294.236
294.444
294.659
294.887
295.122
295.361
295.603
295.848
296.099
296.358
296.631
296.925
297.251
297.62
298.04
298.512
299.028
299.571
300.124
300.679
301.248
301.885
302.77
304.246
306.448
288.927
290.302
291.219
291.812
292.302
292.772
293.199
293.559
293.851
294.092
294.306
294.518
294.745
294.989
295.244
295.501
295.756
296.009
296.262
296.519
296.788
297.076
297.396
297.758
298.171
298.635
299.141
299.671
300.207
300.746
301.305
301.938
302.825
304.298
306.473
288.949
290.351
291.272
291.868
292.363
292.838
293.267
293.624
293.912
294.148
294.36
294.573
294.809
295.073
295.355
295.643
295.925
296.195
296.456
296.718
296.988
297.277
297.596
297.956
298.363
298.817
299.305
299.812
300.326
300.848
301.395
302.021
302.902
304.365
306.501
288.973
290.407
291.336
291.936
292.438
292.917
293.342
293.692
293.97
294.196
294.398
294.604
294.839
295.112
295.421
295.747
296.063
296.358
296.637