/*--------------------------------*- C++ -*----------------------------------*\
| =========                 |                                                 |
| \\      /  F ield         | OpenFOAM: The Open Source CFD Toolbox           |
|  \\    /   O peration     | Version:  2.0.x                                 |
|   \\  /    A nd           | Web:      www.OpenFOAM.org                      |
|    \\/     M anipulation  |                                                 |
\*---------------------------------------------------------------------------*/
FoamFile
{
    version     2.0;
    format      ascii;
    class       volVectorField;
    location    "850";
    object      U;
}
// * * * * * * * * * * * * * * * * * * * * * * * * * * * * * * * * * * * * * //

dimensions      [0 1 -1 0 0 0 0];

internalField   nonuniform List<vector> 
78750
(
(-0.00059582 0.00320291 0.003544)
(-0.00229689 0.00501181 0.00663026)
(-0.00402881 0.00384631 0.00838526)
(-0.00507009 0.000819117 0.00977207)
(-0.00495172 -0.00321523 0.0109505)
(-0.00371272 -0.00751107 0.0119684)
(-0.00153105 -0.0115059 0.0127573)
(0.00140701 -0.0149269 0.0133452)
(0.00485478 -0.017788 0.0137769)
(0.00878864 -0.0204103 0.0141162)
(0.0132846 -0.0226957 0.014367)
(0.0181076 -0.0241387 0.0145131)
(0.022968 -0.0247409 0.0145575)
(0.0274453 -0.024879 0.0145677)
(0.032266 -0.0259592 0.0146221)
(0.0363842 -0.0260691 0.0145943)
(0.0400229 -0.0252703 0.0144944)
(0.0432674 -0.0238777 0.0143469)
(0.0459876 -0.0220964 0.0141689)
(0.0481795 -0.0201209 0.0139596)
(0.0497838 -0.0180351 0.0137441)
(0.0509605 -0.0149216 0.0135581)
(0.0512652 -0.0135217 0.0134804)
(0.0513161 -0.0110059 0.0132697)
(0.0505979 -0.00845998 0.0130927)
(0.0492356 -0.0058365 0.0128911)
(0.0472163 -0.00310874 0.0126389)
(0.0445116 -0.000253742 0.0122981)
(0.0410292 0.00243519 0.0119065)
(0.0367545 0.00529667 0.0114021)
(0.0319055 0.00793815 0.0106105)
(0.0263778 0.0105033 0.00936133)
(0.019835 0.0138674 0.00737021)
(0.0125296 0.0196178 0.00460261)
(0.00376448 0.0229732 0.00150671)
(-0.00015995 0.00187564 0.00398328)
(0.000486037 -0.0017204 0.00796464)
(0.00273631 -0.0105446 0.0105427)
(0.00660165 -0.022107 0.012838)
(0.0115602 -0.0334162 0.014761)
(0.0171104 -0.0429014 0.016262)
(0.0228844 -0.0501932 0.0173768)
(0.0287104 -0.0553305 0.0181678)
(0.0342343 -0.0584878 0.0187716)
(0.0396049 -0.0624147 0.0192906)
(0.0443178 -0.0662704 0.0194592)
(0.0479837 -0.0667376 0.0192327)
(0.0516667 -0.0641963 0.0185309)
(0.0538055 -0.0620998 0.0180308)
(0.0558646 -0.0571471 0.0171835)
(0.0572536 -0.0512086 0.016538)
(0.0579607 -0.0454031 0.0158436)
(0.0582636 -0.0397836 0.0151083)
(0.0581906 -0.0343295 0.0143567)
(0.0577628 -0.0289916 0.0136156)
(0.0569956 -0.0237045 0.0129128)
(0.0559404 -0.018378 0.0122719)
(0.0545428 -0.0129625 0.0117094)
(0.0527598 -0.00739518 0.011219)
(0.0506043 -0.00159917 0.010813)
(0.0479864 0.00445676 0.0105123)
(0.044967 0.010576 0.0102623)
(0.041884 0.0171032 0.0100898)
(0.0372236 0.0254971 0.00996131)
(0.0337825 0.0300667 0.00994013)
(0.0282093 0.0368449 0.00984928)
(0.022691 0.0444762 0.00956546)
(0.0160981 0.0550394 0.00864091)
(0.00871246 0.0682267 0.0065807)
(0.00229528 0.0652483 0.00330654)
(-7.41577e-05 -0.00707443 0.00460583)
(0.0022704 -0.0322378 0.0112058)
(0.00706565 -0.0596431 0.015735)
(0.0131337 -0.0827081 0.0188179)
(0.0193028 -0.0990167 0.0206476)
(0.0251304 -0.109261 0.0215187)
(0.0300269 -0.114911 0.0218142)
(0.0350914 -0.116319 0.0215656)
(0.0384591 -0.115028 0.021191)
(0.0420441 -0.110103 0.0206001)
(0.0444259 -0.101504 0.0195213)
(0.0454429 -0.0930614 0.0180934)
(0.0465816 -0.0840372 0.0168362)
(0.0467936 -0.0748918 0.0154517)
(0.0466054 -0.0661824 0.0138275)
(0.0459318 -0.0584129 0.0117934)
(0.0452712 -0.0508971 0.00977151)
(0.0444481 -0.0436686 0.00787093)
(0.0435549 -0.0367311 0.00616332)
(0.0426082 -0.0300132 0.00469048)
(0.041589 -0.0233966 0.00346493)
(0.0404602 -0.016754 0.00249446)
(0.0391719 -0.00996056 0.00177846)
(0.0376652 -0.00281285 0.00134434)
(0.0359071 0.00538608 0.00130203)
(0.0339757 0.0131319 0.00150008)
(0.032088 0.0195212 0.00165592)
(0.0294094 0.0285012 0.00181921)
(0.0267187 0.0379705 0.00237497)
(0.0238003 0.0471634 0.00322286)
(0.0200486 0.0571612 0.0039609)
(0.0158138 0.0691159 0.0044919)
(0.0104005 0.0850974 0.00450787)
(0.00510068 0.0980156 0.00370107)
(0.00121334 0.0856021 0.00186461)
(0.000298091 -0.0194521 0.0046894)
(0.00372543 -0.0662601 0.0118749)
(0.00851701 -0.103596 0.0168326)
(0.0130608 -0.125393 0.0197491)
(0.0165194 -0.134873 0.0211098)
(0.0194458 -0.137067 0.0214749)
(0.0213962 -0.135898 0.0213441)
(0.0231831 -0.131951 0.0208105)
(0.0245016 -0.125853 0.0198258)
(0.0251901 -0.118012 0.018448)
(0.0258793 -0.108364 0.0169175)
(0.0267828 -0.0978229 0.0147958)
(0.0261598 -0.0873311 0.0113721)
(0.0260206 -0.0761213 0.00746229)
(0.0257036 -0.0651385 0.00368885)
(0.0250804 -0.055055 0.000167158)
(0.0245269 -0.0463381 -0.0028792)
(0.0240852 -0.0388558 -0.00532673)
(0.0237397 -0.0321508 -0.00721265)
(0.0234488 -0.0257186 -0.00862627)
(0.0231686 -0.0192398 -0.00963069)
(0.0228472 -0.0124732 -0.0102809)
(0.0224357 -0.00499346 -0.0105681)
(0.0218547 0.00323471 -0.0105071)
(0.0213025 0.00967974 -0.0102793)
(0.0206112 0.0180975 -0.00968591)
(0.0197146 0.0269683 -0.00871225)
(0.0184562 0.0361001 -0.00721215)
(0.0171761 0.0460005 -0.0050389)
(0.0152357 0.0577312 -0.00310176)
(0.0131076 0.0711867 -0.000893068)
(0.0102646 0.0878796 0.00121581)
(0.00641694 0.107109 0.00242948)
(0.00273901 0.117439 0.00261597)
(0.000368865 0.0948951 0.00163388)
(0.000385204 -0.0365061 0.00538069)
(0.00287686 -0.100667 0.0140659)
(0.00529503 -0.138942 0.0195355)
(0.0069849 -0.155343 0.0223234)
(0.00810462 -0.160823 0.0236415)
(0.00904566 -0.161224 0.0242184)
(0.00985944 -0.158822 0.0242649)
(0.0106452 -0.153524 0.0237948)
(0.0113192 -0.145654 0.0227453)
(0.0118919 -0.135188 0.0210029)
(0.0123458 -0.122043 0.0183985)
(0.0123744 -0.106543 0.0149155)
(0.012885 -0.0901624 0.0107989)
(0.0127295 -0.0752836 0.00590908)
(0.012241 -0.0624396 0.000676082)
(0.0121951 -0.0522788 -0.00388362)
(0.0121112 -0.0444489 -0.00738582)
(0.0121224 -0.0379517 -0.00998475)
(0.0121875 -0.0319217 -0.0118949)
(0.0122961 -0.0258996 -0.013286)
(0.0123954 -0.0196548 -0.0142563)
(0.012452 -0.0129684 -0.0148655)
(0.0124449 -0.00568678 -0.0152164)
(0.0124707 0.00193114 -0.0153999)
(0.0124711 0.00859186 -0.0154223)
(0.012347 0.0170548 -0.0152192)
(0.0121217 0.0263528 -0.0146622)
(0.0118857 0.0363395 -0.0135326)
(0.0112241 0.0472904 -0.0122886)
(0.0103264 0.0599544 -0.0104514)
(0.00898987 0.0756234 -0.00784539)
(0.00700798 0.0959385 -0.00440082)
(0.00429628 0.117248 -0.000790027)
(0.00164272 0.126371 0.000229978)
(2.20809e-05 0.0966962 0.000272021)
(0.000318134 -0.0458131 0.00602816)
(0.00138302 -0.114446 0.0146066)
(0.00203072 -0.150465 0.0194046)
(0.00245174 -0.164856 0.0218674)
(0.00271873 -0.169559 0.0231728)
(0.00295344 -0.169465 0.0238189)
(0.00318106 -0.166054 0.0240093)
(0.00339513 -0.159541 0.0237459)
(0.00361329 -0.150201 0.0229849)
(0.00384248 -0.138312 0.0216399)
(0.00412917 -0.124389 0.019584)
(0.00458095 -0.109092 0.0166656)
(0.00516907 -0.0930476 0.012782)
(0.0058453 -0.0772145 0.00805562)
(0.00665193 -0.0630055 0.00288573)
(0.00715618 -0.0513504 -0.00202982)
(0.00748293 -0.0421854 -0.00611812)
(0.00764994 -0.0347575 -0.00940065)
(0.00779382 -0.028306 -0.0119461)
(0.00790522 -0.0221128 -0.0137086)
(0.00801944 -0.0157342 -0.0148711)
(0.00812977 -0.00899224 -0.0155897)
(0.00823132 -0.00200371 -0.0160385)
(0.00836773 0.00435905 -0.0162737)
(0.00847397 0.0113217 -0.0163986)
(0.00852929 0.0189067 -0.0163111)
(0.00851301 0.0274429 -0.0160315)
(0.00849727 0.0371511 -0.0155526)
(0.00822641 0.0487007 -0.0148638)
(0.00779735 0.0628434 -0.0134591)
(0.00692453 0.081165 -0.0106434)
(0.00542126 0.104623 -0.00674959)
(0.0033397 0.126832 -0.00312596)
(0.00121381 0.134386 -0.00152059)
(-8.92696e-05 0.0975226 -0.000516346)
(6.62809e-05 -0.0526019 0.00628277)
(0.000119832 -0.125979 0.0145175)
(-0.000137877 -0.164178 0.0189584)
(-0.000398578 -0.179633 0.0213226)
(-0.000635962 -0.18465 0.0227165)
(-0.000832033 -0.184712 0.0236541)
(-0.000953434 -0.18128 0.0243112)
(-0.000964787 -0.174819 0.0247294)
(-0.000835682 -0.165552 0.024892)
(-0.000527465 -0.153687 0.0247003)
(-9.64476e-06 -0.139509 0.0239611)
(0.000732586 -0.123446 0.0224232)
(0.00169856 -0.1061 0.0198402)
(0.00283762 -0.0882809 0.0160588)
(0.00404526 -0.0710592 0.01116)
(0.00514412 -0.0557643 0.00561203)
(0.00599963 -0.0434762 0.000242385)
(0.00650266 -0.0341778 -0.00402848)
(0.00673649 -0.026751 -0.00717052)
(0.00683984 -0.0202172 -0.00973088)
(0.00687299 -0.0139307 -0.0116985)
(0.00691703 -0.00750577 -0.0131062)
(0.00701786 -0.000986463 -0.0140841)
(0.00713787 0.00511433 -0.0146925)
(0.00723813 0.0120636 -0.0151068)
(0.00729937 0.0196494 -0.0153423)
(0.00733393 0.028111 -0.0154046)
(0.00728924 0.0377455 -0.0153125)
(0.00714555 0.0492787 -0.0149654)
(0.00679212 0.064068 -0.0139873)
(0.00608756 0.0840663 -0.0118215)
(0.00481027 0.109726 -0.00836845)
(0.00305649 0.132788 -0.00501898)
(0.00125431 0.139526 -0.0031354)
(1.29018e-05 0.0985355 -0.00124283)
(-6.39922e-05 -0.0535629 0.00599912)
(-0.000465903 -0.127092 0.0132836)
(-0.00107629 -0.165603 0.0169377)
(-0.00160326 -0.181698 0.0188382)
(-0.00207508 -0.187549 0.0199532)
(-0.00245686 -0.188401 0.0206676)
(-0.00272286 -0.185867 0.0212065)
(-0.00281702 -0.180422 0.0216469)
(-0.00271556 -0.172341 0.022048)
(-0.00238701 -0.161874 0.0224238)
(-0.00180803 -0.149283 0.0227012)
(-0.00096271 -0.134859 0.0227026)
(0.000148922 -0.118902 0.0221573)
(0.00151271 -0.101759 0.0207375)
(0.00305994 -0.0839428 0.0181392)
(0.00466287 -0.0662648 0.014217)
(0.00611053 -0.0498995 0.00918624)
(0.00720473 -0.0361012 0.00375698)
(0.00783218 -0.0253701 -0.00109044)
(0.00806931 -0.0168938 -0.0047735)
(0.00806071 -0.0095582 -0.00761813)
(0.00794094 -0.00288041 -0.00989609)
(0.00786407 0.00295331 -0.0114086)
(0.00781881 0.00923589 -0.0125285)
(0.00773513 0.0157903 -0.0133366)
(0.00763863 0.0228918 -0.0138987)
(0.00751701 0.030913 -0.0142583)
(0.00734642 0.0405058 -0.0143994)
(0.00707265 0.0524773 -0.0143203)
(0.00661276 0.0683734 -0.0137669)
(0.00585215 0.0901712 -0.0121406)
(0.00457867 0.117524 -0.00922423)
(0.00294205 0.140565 -0.00615164)
(0.00126274 0.146028 -0.00381791)
(2.90556e-05 0.100657 -0.00151448)
(-0.000125982 -0.0544096 0.00569305)
(-0.000628831 -0.131466 0.0122835)
(-0.00109587 -0.173124 0.0156035)
(-0.00136028 -0.190975 0.0173572)
(-0.00154203 -0.197813 0.0183758)
(-0.00164649 -0.199462 0.0190223)
(-0.00165269 -0.197785 0.0194929)
(-0.00152884 -0.193303 0.0198711)
(-0.00124961 -0.186279 0.0202287)
(-0.000795382 -0.176874 0.0206221)
(-0.000155481 -0.165229 0.0210783)
(0.000674036 -0.151539 0.021574)
(0.00168854 -0.136079 0.0220064)
(0.00287751 -0.11917 0.0221689)
(0.00422439 -0.101156 0.0217475)
(0.00569449 -0.0824666 0.0203687)
(0.00721544 -0.0637157 0.0177002)
(0.008616 -0.0458577 0.0136434)
(0.00967568 -0.0301206 0.00855945)
(0.0102598 -0.0174098 0.00323789)
(0.0103678 -0.00762816 -0.00140208)
(0.0101536 3.24777e-05 -0.00496026)
(0.0098866 0.00594763 -0.00722312)
(0.00959936 0.0124118 -0.00904556)
(0.00928775 0.0191627 -0.0103897)
(0.00894195 0.0263969 -0.0113635)
(0.00854521 0.0344874 -0.0120604)
(0.00808174 0.0440165 -0.0125402)
(0.00752884 0.0560285 -0.0128005)
(0.00683387 0.0723513 -0.0126792)
(0.00592247 0.0952469 -0.0116771)
(0.00461784 0.123992 -0.00938397)
(0.00304187 0.147398 -0.00666157)
(0.00141117 0.152102 -0.00420868)
(0.000108022 0.103533 -0.00157679)
(-9.55885e-05 -0.0540918 0.00483649)
(-0.00017775 -0.132471 0.010165)
(-8.90886e-05 -0.176391 0.0130711)
(0.000150645 -0.196041 0.0146033)
(0.000401485 -0.203946 0.0153923)
(0.000655053 -0.206403 0.0157936)
(0.000930229 -0.20545 0.0159564)
(0.00125561 -0.201708 0.0159754)
(0.00164944 -0.195462 0.0159394)
(0.00213111 -0.18689 0.0159353)
(0.00271141 -0.176148 0.0160491)
(0.00339837 -0.163405 0.016356)
(0.00419755 -0.148873 0.0168974)
(0.00511264 -0.132796 0.0176485)
(0.00614634 -0.115424 0.0184778)
(0.00729575 -0.0970052 0.0191164)
(0.00853683 -0.0778481 0.0191691)
(0.00981356 -0.0583832 0.0181706)
(0.0110095 -0.0393141 0.0157271)
(0.0119291 -0.0217143 0.0117472)
(0.0123715 -0.00685955 0.00663835)
(0.0121962 0.00417745 0.00154958)
(0.0117852 0.0110555 -0.00178874)
(0.0112378 0.0180607 -0.00455929)
(0.0106202 0.0250845 -0.00664146)
(0.00998141 0.0325126 -0.00818652)
(0.00932247 0.04081 -0.00933782)
(0.00861886 0.0506131 -0.0102012)
(0.00783753 0.0630124 -0.0108249)
(0.00693107 0.0799093 -0.0111248)
(0.00585444 0.103613 -0.0107192)
(0.00446331 0.13296 -0.00909243)
(0.00292376 0.155838 -0.006823)
(0.00134882 0.159332 -0.00444553)
(6.73442e-05 0.106949 -0.00161505)
(-5.06298e-05 -0.056579 0.00397937)
(0.000378639 -0.140322 0.00925669)
(0.00111288 -0.187619 0.0122999)
(0.00198003 -0.208406 0.0138444)
(0.00281596 -0.216481 0.0145635)
(0.00360746 -0.218864 0.0148509)
(0.00432764 -0.217885 0.0148395)
(0.00502717 -0.214116 0.0145887)
(0.0056687 -0.207833 0.0141573)
(0.00627573 -0.199197 0.0135973)
(0.00684376 -0.188341 0.0129819)
(0.00737739 -0.175449 0.0124156)
(0.00788839 -0.160791 0.012031)
(0.00839706 -0.144695 0.0119617)
(0.00893203 -0.127468 0.0122949)
(0.00952171 -0.109334 0.0130167)
(0.0101912 -0.0904438 0.0139648)
(0.0109504 -0.0709329 0.0148046)
(0.0117669 -0.0509726 0.0150383)
(0.0125415 -0.0308954 0.0140707)
(0.0131025 -0.0115382 0.011375)
(0.0131304 0.00483864 0.00711521)
(0.0128132 0.0144326 0.00370329)
(0.0122084 0.0233527 0.000210136)
(0.0114429 0.0312072 -0.00265704)
(0.0106168 0.0389 -0.00487904)
(0.00976645 0.0472993 -0.00658179)
(0.0088886 0.0572461 -0.00788854)
(0.00795286 0.0699185 -0.00888026)
(0.00690943 0.0872639 -0.00953089)
(0.00572354 0.111619 -0.00956407)
(0.00428031 0.141457 -0.00847335)
(0.00278642 0.163893 -0.00663996)
(0.00128509 0.166349 -0.00447752)
(3.87283e-05 0.110493 -0.00168859)
(0.000114853 -0.0602508 0.00340006)
(0.00109118 -0.14868 0.00839159)
(0.00216818 -0.19866 0.01136)
(0.00322369 -0.220814 0.0128893)
(0.00417811 -0.229253 0.0136053)
(0.00505424 -0.23148 0.013885)
(0.00579162 -0.230145 0.0138637)
(0.00644821 -0.225771 0.0135818)
(0.00697591 -0.218665 0.0130691)
(0.00739642 -0.209022 0.0123437)
(0.00770748 -0.197042 0.0114356)
(0.00792337 -0.183014 0.0104054)
(0.00807158 -0.167335 0.00935883)
(0.00818985 -0.150462 0.00844325)
(0.00831632 -0.1328 0.00781875)
(0.00849204 -0.114616 0.00761458)
(0.00875558 -0.0960105 0.00788058)
(0.00912877 -0.0769704 0.00854579)
(0.00961149 -0.0573635 0.00938339)
(0.0101674 -0.0369798 0.00999379)
(0.0107033 -0.0158857 0.00980216)
(0.0110806 0.00389013 0.00829589)
(0.0110715 0.0162582 0.00629701)
(0.0107738 0.027926 0.00341659)
(0.0102682 0.0374974 0.000510464)
(0.00957037 0.0460758 -0.00202408)
(0.00879386 0.0549169 -0.00413456)
(0.00796054 0.0651866 -0.00585975)
(0.00705837 0.0782751 -0.007238)
(0.00604326 0.0962166 -0.00823227)
(0.00489423 0.121172 -0.00860369)
(0.00352203 0.15105 -0.00791825)
(0.00218609 0.172365 -0.00645193)
(0.000877058 0.173369 -0.00454539)
(-0.000126226 0.113238 -0.0018633)
(0.000169924 -0.067034 0.0036393)
(0.00118728 -0.160746 0.00894316)
(0.00192205 -0.211483 0.0117948)
(0.00241742 -0.233283 0.0132057)
(0.00283916 -0.241257 0.0139231)
(0.00334802 -0.242753 0.0142739)
(0.00379928 -0.240627 0.0143743)
(0.00413251 -0.235435 0.0142302)
(0.00436742 -0.227424 0.0138235)
(0.00448736 -0.216806 0.0131491)
(0.00450581 -0.203834 0.0122096)
(0.00445103 -0.188874 0.0110311)
(0.00436933 -0.172412 0.00968218)
(0.00432477 -0.154978 0.00827698)
(0.00434638 -0.137027 0.00695912)
(0.00443582 -0.118831 0.00587552)
(0.00463023 -0.100472 0.00514341)
(0.00494948 -0.0818601 0.00482414)
(0.00537657 -0.0627189 0.0049056)
(0.00589381 -0.0426369 0.00528896)
(0.00648095 -0.0214148 0.00575505)
(0.00714496 -0.000601579 0.00589636)
(0.00761864 0.0141499 0.00533333)
(0.00779446 0.0282629 0.00376704)
(0.00762965 0.0401022 0.00172967)
(0.00739912 0.0502349 -0.000417141)
(0.0069272 0.0600917 -0.00244822)
(0.00634973 0.0710992 -0.00427998)
(0.00565749 0.0848991 -0.00585618)
(0.00481527 0.103673 -0.00707066)
(0.00381411 0.129433 -0.00766529)
(0.0026175 0.15942 -0.00726336)
(0.00151102 0.179494 -0.00609543)
(0.000485366 0.17896 -0.00453159)
(-0.000252638 0.114283 -0.0019965)
(0.00019481 -0.0726677 0.00416947)
(0.000488944 -0.168131 0.00923891)
(0.000286926 -0.217197 0.0116473)
(-8.55637e-05 -0.238804 0.0129782)
(-0.00047075 -0.247684 0.0138218)
(-0.000883613 -0.250296 0.0144338)
(-0.00111274 -0.248225 0.0149807)
(-0.00143144 -0.242486 0.0152545)
(-0.00170451 -0.233668 0.015257)
(-0.00198167 -0.222142 0.0149876)
(-0.00222668 -0.208318 0.0144443)
(-0.00239894 -0.192704 0.0136323)
(-0.00247067 -0.175856 0.012578)
(-0.00243945 -0.15828 0.0113374)
(-0.0022636 -0.14036 0.00999412)
(-0.00192112 -0.122304 0.00864548)
(-0.00145211 -0.104136 0.00739048)
(-0.000859103 -0.0857288 0.00631427)
(-0.000172113 -0.0668095 0.00547488)
(0.000595812 -0.047055 0.00490061)
(0.00149865 -0.026456 0.00456716)
(0.00258748 -0.00616578 0.00434023)
(0.00339953 0.0104887 0.00394473)
(0.00402639 0.0263319 0.00312843)
(0.00447802 0.0398949 0.0018379)
(0.00454167 0.0517468 0.000260761)
(0.00453734 0.0631022 -0.00152228)
(0.00429433 0.0753082 -0.00324664)
(0.00389661 0.0902738 -0.00484177)
(0.00330119 0.11032 -0.00615401)
(0.00252279 0.137102 -0.0068769)
(0.00158288 0.16692 -0.0066604)
(0.000784575 0.185212 -0.00573686)
(7.16426e-05 0.182736 -0.00441101)
(-0.000294521 0.113821 -0.00194998)
(-4.1893e-05 -0.0743338 0.00459701)
(-0.000472839 -0.168801 0.00923222)
(-0.00126697 -0.2175 0.0112414)
(-0.00212796 -0.239026 0.0124356)
(-0.00298535 -0.247914 0.0132778)
(-0.00393804 -0.250687 0.0138343)
(-0.00484829 -0.249349 0.0149062)
(-0.00557752 -0.244318 0.0156832)
(-0.0061894 -0.236194 0.0162344)
(-0.00661078 -0.225476 0.0165905)
(-0.00681814 -0.212636 0.0167536)
(-0.00679632 -0.198117 0.0167087)
(-0.00655117 -0.182329 0.0164348)
(-0.00611178 -0.165634 0.0159165)
(-0.00552371 -0.14833 0.0151567)
(-0.00482002 -0.130636 0.014183)
(-0.00404161 -0.112642 0.0130414)
(-0.00323467 -0.0943136 0.0117859)
(-0.00235697 -0.0755203 0.0104674)
(-0.00135609 -0.0560826 0.0091225)
(-0.000256186 -0.0359572 0.00778315)
(0.000915573 -0.0155071 0.00647867)
(0.00196206 0.00410776 0.00521538)
(0.00276811 0.0207686 0.00404368)
(0.00341787 0.0363976 0.0027322)
(0.00379173 0.050252 0.00130312)
(0.00389509 0.0631573 -1.12143e-05)
(0.00377807 0.0768898 -0.00172993)
(0.00346516 0.0933802 -0.00333168)
(0.00293457 0.114951 -0.00470192)
(0.00222403 0.14288 -0.00555609)
(0.00139834 0.172523 -0.00555429)
(0.00073431 0.189125 -0.00489221)
(0.00014905 0.184872 -0.00381725)
(-0.000173017 0.112437 -0.00154288)
(-0.000158806 -0.073389 0.00478343)
(-0.00115993 -0.167678 0.00819185)
(-0.00236247 -0.216557 0.00924129)
(-0.00340638 -0.238563 0.0102127)
(-0.00440256 -0.247834 0.0112119)
(-0.00519433 -0.25076 0.0120026)
(-0.00611834 -0.250284 0.0134446)
(-0.00676314 -0.246575 0.0145926)
(-0.00724633 -0.240065 0.0156073)
(-0.00747742 -0.231108 0.0165556)
(-0.00744841 -0.220019 0.017464)
(-0.00716137 -0.207053 0.0183169)
(-0.0066449 -0.192462 0.0190665)
(-0.00594851 -0.176523 0.0196485)
(-0.00512907 -0.159543 0.0199917)
(-0.00423808 -0.141812 0.020031)
(-0.00330593 -0.123548 0.0197186)
(-0.00235914 -0.104855 0.0190294)
(-0.00140519 -0.0857231 0.0179583)
(-0.000456654 -0.0660453 0.0165053)
(0.000523759 -0.0456923 0.0146715)
(0.00159228 -0.0247475 0.0124756)
(0.00266312 -0.00396721 0.0100275)
(0.00346316 0.0140712 0.00786503)
(0.00406605 0.0318932 0.00567821)
(0.00445307 0.0479527 0.00380678)
(0.00455118 0.0629377 0.00217102)
(0.0043313 0.0784585 0.000439025)
(0.00391434 0.0966224 -0.00127149)
(0.00328712 0.119726 -0.00282997)
(0.00251105 0.148648 -0.00390748)
(0.00166037 0.177868 -0.00414995)
(0.000995108 0.192867 -0.00370961)
(0.000392111 0.187176 -0.0027557)
(-2.56705e-05 0.112609 -0.000427348)
(-0.000171455 -0.0691561 0.00376906)
(-0.0014512 -0.160787 0.00540228)
(-0.0027286 -0.210729 0.00540272)
(-0.00367583 -0.235114 0.00582921)
(-0.00442674 -0.24633 0.00672871)
(-0.00518795 -0.250728 0.00838393)
(-0.00572521 -0.251558 0.00888516)
(-0.0060974 -0.249318 0.00962117)
(-0.00627513 -0.244518 0.0105322)
(-0.0062337 -0.237445 0.0115728)
(-0.00597997 -0.228266 0.012736)
(-0.00552572 -0.217062 0.0140438)
(-0.00487921 -0.203929 0.0155193)
(-0.00407383 -0.189062 0.0171303)
(-0.00317856 -0.172724 0.0188133)
(-0.00223379 -0.155213 0.0204451)
(-0.00127049 -0.136827 0.0218451)
(-0.00030913 -0.117788 0.0228458)
(0.00063109 -0.0981871 0.023307)
(0.00156216 -0.0780249 0.0231143)
(0.00249609 -0.0571928 0.0221725)
(0.00341809 -0.0356086 0.0204013)
(0.00430633 -0.0134189 0.0177469)
(0.00493729 0.00849733 0.0142737)
(0.00539094 0.0265251 0.0111787)
(0.00575969 0.0452161 0.00799046)
(0.00568305 0.0627686 0.00512894)
(0.00540685 0.0803479 0.00306771)
(0.00483477 0.100214 0.00117306)
(0.00407556 0.124768 -0.000546381)
(0.00319298 0.154504 -0.00185793)
(0.00224287 0.183141 -0.0023804)
(0.00146062 0.196841 -0.002173)
(0.000735619 0.190066 -0.00143291)
(6.03232e-05 0.11334 0.000223966)
(-0.000226478 -0.0653012 0.00267722)
(-0.000859884 -0.154699 0.00352884)
(-0.00143959 -0.206343 0.00365112)
(-0.00183995 -0.232513 0.00373939)
(-0.00213241 -0.245304 0.00370072)
(-0.00224647 -0.251835 0.00312011)
(-0.00236706 -0.254219 0.0031522)
(-0.00237462 -0.253641 0.0033422)
(-0.00224554 -0.250409 0.00366508)
(-0.0019773 -0.244728 0.00412494)
(-0.00156288 -0.236808 0.00473836)
(-0.00102322 -0.226752 0.00558271)
(-0.000457479 -0.214624 0.00679602)
(0.000223622 -0.200735 0.00829339)
(0.000886314 -0.185156 0.0103981)
(0.00153377 -0.168118 0.013148)
(0.00220194 -0.149984 0.016174)
(0.00293976 -0.131022 0.019119)
(0.00370767 -0.111297 0.0218256)
(0.0044325 -0.0908831 0.0239711)
(0.00513242 -0.0697181 0.0252558)
(0.00582469 -0.0474348 0.0254584)
(0.00648778 -0.0236358 0.0242763)
(0.00696908 0.000819758 0.0215387)
(0.00729658 0.0200796 0.0187314)
(0.007482 0.0417409 0.0146072)
(0.00739271 0.0621795 0.0107513)
(0.00692017 0.0821105 0.00740198)
(0.00615333 0.103821 0.00455015)
(0.00518041 0.129801 0.00219904)
(0.00411118 0.160382 0.000462404)
(0.00297584 0.188738 -0.000392579)
(0.00201252 0.201656 -0.000418048)
(0.00109975 0.19425 0.000125718)
(0.000160681 0.115998 0.00131497)
(-8.42101e-05 -0.0647249 0.00203857)
(0.000106319 -0.154436 0.00275963)
(0.000778648 -0.206721 0.00247494)
(0.00160727 -0.234039 0.00182878)
(0.00229903 -0.247734 0.00100472)
(0.00290114 -0.254679 0.000138297)
(0.00345671 -0.257672 -0.000727386)
(0.00396456 -0.257684 -0.00144585)
(0.00444974 -0.255221 -0.00202089)
(0.00488748 -0.250294 -0.00249878)
(0.00538077 -0.243205 -0.00291369)
(0.00568808 -0.233524 -0.00306013)
(0.00583367 -0.221382 -0.00271363)
(0.00588634 -0.207246 -0.00166948)
(0.00593006 -0.191895 -0.000167159)
(0.00603598 -0.175747 0.00175331)
(0.00622262 -0.158743 0.0043393)
(0.00644623 -0.140752 0.00773562)
(0.00671642 -0.121719 0.0119422)
(0.00705215 -0.101572 0.0165546)
(0.00745211 -0.0806114 0.0204125)
(0.00788273 -0.058315 0.0234879)
(0.00833768 -0.0339543 0.0253521)
(0.00883716 -0.00772252 0.0254074)
(0.00893327 0.0135682 0.0240403)
(0.008808 0.0365069 0.0211826)
(0.00859291 0.0605742 0.017192)
(0.0079836 0.0840533 0.0124057)
(0.0070785 0.108269 0.00834972)
(0.00594999 0.135848 0.00508779)
(0.00473059 0.167139 0.00272222)
(0.00344266 0.195093 0.00146674)
(0.0023236 0.207351 0.0012063)
(0.00126282 0.199355 0.00152927)
(0.000153301 0.119256 0.00206438)
(-0.000137649 -0.0658289 0.000576165)
(0.000745755 -0.158698 0.000705273)
(0.00253488 -0.213592 0.000761586)
(0.00441275 -0.241918 0.000410994)
(0.00607261 -0.255658 -0.00023485)
(0.00744502 -0.262266 -0.000980674)
(0.00856912 -0.264758 -0.00180005)
(0.009416 -0.264358 -0.00259275)
(0.0101106 -0.261394 -0.00351125)
(0.0105163 -0.255647 -0.00447408)
(0.01075 -0.246649 -0.0051491)
(0.0104462 -0.234899 -0.00516811)
(0.0102553 -0.221657 -0.00515558)
(0.00986289 -0.207222 -0.00486741)
(0.00944881 -0.191878 -0.00415308)
(0.00904328 -0.175892 -0.00298314)
(0.00864808 -0.15947 -0.00148632)
(0.00833709 -0.14274 0.00011195)
(0.00814907 -0.125658 0.00206163)
(0.00812892 -0.107832 0.00480641)
(0.00823013 -0.0884159 0.00879589)
(0.00841182 -0.0671782 0.0138035)
(0.00868902 -0.0440671 0.0182692)
(0.00901376 -0.0182479 0.0217151)
(0.00904455 0.00956571 0.0238188)
(0.00884736 0.0316256 0.0233254)
(0.00861594 0.0586662 0.0197602)
(0.00811567 0.0851662 0.0155348)
(0.00726619 0.111955 0.011251)
(0.00614791 0.141334 0.00756783)
(0.00488878 0.173586 0.00479708)
(0.00352882 0.20156 0.00320694)
(0.00231343 0.213536 0.00270892)
(0.00119045 0.205052 0.00274848)
(6.5335e-05 0.122684 0.00245215)
(-0.000115101 -0.0700501 6.18798e-05)
(0.00151198 -0.169455 0.00127601)
(0.00408868 -0.226774 0.00253282)
(0.00647424 -0.254366 0.0026638)
(0.00853292 -0.266505 0.00204829)
(0.0102441 -0.271534 0.00107865)
(0.0116562 -0.272493 -0.000120303)
(0.0126686 -0.270609 -0.0013066)
(0.0132986 -0.26572 -0.00280494)
(0.0135967 -0.257639 -0.00460217)
(0.013277 -0.246594 -0.00632875)
(0.0131728 -0.23428 -0.00848172)
(0.0126317 -0.220593 -0.0104041)
(0.0120588 -0.205918 -0.011667)
(0.0114366 -0.190646 -0.01198)
(0.0108274 -0.174988 -0.0112654)
(0.0103023 -0.15895 -0.009561)
(0.00980898 -0.142469 -0.00704207)
(0.00936105 -0.125585 -0.00428433)
(0.00897144 -0.10825 -0.00157986)
(0.00864533 -0.0902803 0.00114477)
(0.00847221 -0.0712813 0.00405325)
(0.00844105 -0.0496378 0.00832369)
(0.00849644 -0.0243334 0.0136368)
(0.00856056 0.00338711 0.0186036)
(0.00848565 0.0261604 0.0210974)
(0.0083365 0.0549021 0.0211528)
(0.00782424 0.0844893 0.0182798)
(0.00708595 0.114723 0.0139431)
(0.00592389 0.146629 0.00962396)
(0.00462899 0.180181 0.00630045)
(0.00323607 0.208253 0.00438073)
(0.00201746 0.219835 0.00366281)
(0.000923062 0.210459 0.003388)
(-5.56388e-05 0.125139 0.00233229)
(3.73076e-05 -0.0766468 0.000275735)
(0.00213256 -0.183167 0.00305948)
(0.00477982 -0.241978 0.00520672)
(0.00705989 -0.268242 0.00558032)
(0.00899265 -0.278551 0.00489548)
(0.0107109 -0.281652 0.00365959)
(0.0118613 -0.281018 0.00240309)
(0.0127654 -0.276714 0.000539324)
(0.0130763 -0.268679 -0.00193495)
(0.0132774 -0.258008 -0.00491282)
(0.0131193 -0.245584 -0.00853327)
(0.0126104 -0.231157 -0.0123573)
(0.011931 -0.215535 -0.0159933)
(0.011091 -0.199666 -0.0189112)
(0.010222 -0.184125 -0.0206875)
(0.00941258 -0.169003 -0.0211498)
(0.00871547 -0.154083 -0.0203478)
(0.00816245 -0.139026 -0.0184306)
(0.00774891 -0.123488 -0.0155874)
(0.00744737 -0.107201 -0.0120927)
(0.00722246 -0.0900154 -0.00831359)
(0.00702985 -0.0717654 -0.00467996)
(0.00693511 -0.0516843 -0.000489801)
(0.00694888 -0.0285311 0.0045519)
(0.00715501 -0.00245026 0.0102933)
(0.00729913 0.0205916 0.0145997)
(0.00720374 0.0506661 0.0177817)
(0.00688936 0.0833879 0.0178168)
(0.00613651 0.116653 0.0149681)
(0.00511771 0.151242 0.0108363)
(0.00391104 0.186289 0.00726012)
(0.00261076 0.214426 0.00508593)
(0.00150459 0.225492 0.00415773)
(0.000553204 0.215018 0.00355999)
(-0.000192224 0.126637 0.00179657)
(0.000211606 -0.0854987 0.000814589)
(0.00234727 -0.198614 0.00473986)
(0.00434249 -0.256705 0.00741519)
(0.00574544 -0.280257 0.00805729)
(0.00680776 -0.288341 0.00751775)
(0.00772825 -0.289332 0.00622303)
(0.00826144 -0.285762 0.00445807)
(0.00891684 -0.278547 0.00180274)
(0.00899502 -0.268814 -0.0011286)
(0.00874149 -0.256584 -0.00472847)
(0.00832647 -0.241452 -0.00900907)
(0.00765249 -0.224548 -0.0137767)
(0.00687572 -0.207246 -0.0184961)
(0.0061172 -0.190585 -0.0225557)
(0.00546644 -0.175007 -0.0254887)
(0.00492037 -0.160406 -0.0270856)
(0.00448606 -0.146403 -0.0274172)
(0.00415567 -0.132557 -0.0266276)
(0.00392203 -0.118451 -0.0248579)
(0.00378453 -0.103683 -0.0222065)
(0.00373715 -0.0878683 -0.0187564)
(0.00369392 -0.0708972 -0.0148638)
(0.00385992 -0.0522652 -0.0102083)
(0.00409191 -0.0308827 -0.00492357)
(0.00456616 -0.00676408 0.0010628)
(0.00490441 0.0165693 0.00629704)
(0.00502757 0.0470035 0.0115151)
(0.00503383 0.0813941 0.0142304)
(0.00441168 0.117558 0.0131205)
(0.00381379 0.154876 0.0107665)
(0.00270569 0.191535 0.00753295)
(0.00162908 0.21974 0.00527818)
(0.000733439 0.230145 0.00419883)
(5.15335e-05 0.218186 0.0033669)
(-0.000293528 0.126335 0.00121041)
(0.00032574 -0.094442 0.00217888)
(0.00137964 -0.210739 0.00719686)
(0.00193249 -0.26435 0.00968704)
(0.002096 -0.284066 0.0101032)
(0.00233926 -0.290106 0.00930596)
(0.00239744 -0.290036 0.00815809)
(0.00249282 -0.285794 0.00673786)
(0.00214016 -0.277927 0.00502158)
(0.00196465 -0.26622 0.00251226)
(0.00131931 -0.251019 -0.000648699)
(0.000755557 -0.234013 -0.00502382)
(0.000259907 -0.216445 -0.0101799)
(-0.000108852 -0.199299 -0.0154928)
(-0.000270639 -0.183169 -0.0205117)
(-0.00027026 -0.168264 -0.0249113)
(-0.000279561 -0.154223 -0.0277617)
(-0.00020909 -0.140779 -0.0293032)
(-9.49201e-05 -0.127509 -0.0296414)
(5.06831e-05 -0.114009 -0.0289367)
(0.000212181 -0.0999057 -0.02729)
(0.000366618 -0.0849315 -0.0247295)
(0.000630078 -0.0693161 -0.0213948)
(0.000831786 -0.0524137 -0.018029)
(0.0013412 -0.0335129 -0.0134319)
(0.00203109 -0.011703 -0.00792786)
(0.00268742 0.0131405 -0.00184224)
(0.00312648 0.0421371 0.0042361)
(0.00328946 0.0784756 0.00921639)
(0.00310634 0.117441 0.0110553)
(0.00235222 0.157362 0.00960798)
(0.00153094 0.1956 0.00710473)
(0.00067401 0.223665 0.00500724)
(2.81655e-05 0.233179 0.00374342)
(-0.000409725 0.219186 0.00233455)
(-0.000290152 0.12459 0.000417789)
(0.000118808 -0.0972278 0.00322551)
(-4.27429e-05 -0.212133 0.00837582)
(-0.000557717 -0.264676 0.0111045)
(-0.00104598 -0.284061 0.0122109)
(-0.00166914 -0.289945 0.0127025)
(-0.00217054 -0.289212 0.0127781)
(-0.00260809 -0.28349 0.0122727)
(-0.00323155 -0.273541 0.0111911)
(-0.00375581 -0.260757 0.00885811)
(-0.00385766 -0.246364 0.00476769)
(-0.00401462 -0.230537 -5.11466e-05)
(-0.00393662 -0.213908 -0.00506836)
(-0.00358332 -0.197133 -0.00996126)
(-0.00318033 -0.18075 -0.0144744)
(-0.00287475 -0.165097 -0.0183475)
(-0.00241461 -0.150631 -0.0224551)
(-0.00208358 -0.137088 -0.0259572)
(-0.00178327 -0.123898 -0.0278492)
(-0.00151106 -0.110604 -0.0284763)