/*--------------------------------*- C++ -*----------------------------------*\
| =========                 |                                                 |
| \\      /  F ield         | OpenFOAM: The Open Source CFD Toolbox           |
|  \\    /   O peration     | Version:  2.0.x                                 |
|   \\  /    A nd           | Web:      www.OpenFOAM.org                      |
|    \\/     M anipulation  |                                                 |
\*---------------------------------------------------------------------------*/
FoamFile
{
    version     2.0;
    format      ascii;
    class       volScalarField;
    location    "250";
    object      k;
}
// * * * * * * * * * * * * * * * * * * * * * * * * * * * * * * * * * * * * * //

dimensions      [0 2 -2 0 0 0 0];

internalField   nonuniform List<scalar> 
78750
(
7.24898e-06
6.72214e-05
0.000106652
0.000141179
0.000173259
0.000202094
0.000228197
0.00025135
0.000270735
0.000285138
0.000298522
0.000305235
0.000318652
0.00032944
0.00033635
0.000338733
0.000341704
0.000340931
0.000339589
0.000336991
0.000334108
0.000330347
0.000326564
0.000322731
0.000318817
0.000314785
0.000310575
0.000306153
0.000301407
0.00029622
0.000290337
0.000283488
0.000273207
0.00022974
5.3234e-05
4.0319e-06
5.62871e-05
0.00011622
0.000179166
0.000239151
0.000290677
0.000337365
0.000377769
0.000407512
0.000431124
0.000447704
0.000457176
0.000454738
0.000447228
0.000439063
0.000430372
0.000421505
0.000412844
0.000404704
0.000397267
0.00039074
0.00038427
0.000377238
0.000369815
0.000361586
0.000353063
0.000344175
0.000335108
0.000325782
0.000316224
0.000306404
0.000295417
0.000276495
0.000238581
0.000214823
1.27694e-05
0.000120814
0.000238551
0.000337865
0.000414325
0.00046695
0.000496247
0.000508346
0.000508041
0.000502556
0.00048947
0.000474903
0.000458709
0.000438952
0.000416279
0.000392195
0.00036872
0.000348053
0.000331523
0.000318209
0.000309803
0.000306864
0.000307771
0.000312785
0.000319332
0.000324362
0.000326301
0.000325834
0.000322299
0.000315327
0.000306166
0.000295017
0.000281993
0.000277313
0.000323484
4.57346e-05
0.000205261
0.000344697
0.000429193
0.000472485
0.000494827
0.000506778
0.000511125
0.000509588
0.000499874
0.000484563
0.000462589
0.000431928
0.000395149
0.000354955
0.000313302
0.000274206
0.000242167
0.000219874
0.000207703
0.000204275
0.000207504
0.000218636
0.000235619
0.000254761
0.000272335
0.000286051
0.000295595
0.0003007
0.000301806
0.000298868
0.000291778
0.000287108
0.00029177
0.000314743
8.19286e-05
0.000251406
0.000377755
0.000453542
0.000499066
0.000527631
0.000543646
0.000547745
0.000541435
0.000523636
0.000496727
0.000463966
0.000429008
0.000390215
0.00034861
0.000306204
0.000266382
0.000232813
0.000207164
0.000189385
0.00018054
0.00018158
0.000191687
0.000207991
0.000226813
0.000245086
0.00026093
0.000273461
0.00028224
0.000287247
0.000288775
0.000288128
0.000288743
0.000291487
0.000293999
0.000103405
0.000278694
0.000406996
0.000480014
0.000520706
0.000544649
0.000556903
0.000558819
0.000551443
0.000535093
0.000511672
0.00048248
0.000447476
0.000407739
0.000364691
0.000320165
0.000276644
0.000237713
0.000206838
0.000185858
0.000174937
0.000173196
0.000179436
0.000191935
0.00020799
0.000224857
0.000240622
0.000254275
0.000265378
0.000273817
0.000279682
0.000283672
0.000286659
0.000286903
0.000279186
0.000116513
0.000292158
0.000420395
0.000496138
0.000540449
0.00056806
0.000583635
0.000588053
0.000581757
0.000565371
0.000540703
0.000510587
0.000476799
0.000439997
0.000400433
0.000358422
0.000314961
0.000272252
0.000233616
0.000203054
0.000183096
0.00017327
0.000171289
0.000176295
0.000187171
0.000201955
0.000218288
0.000234185
0.000248462
0.000260622
0.000270564
0.000278443
0.000283447
0.000284696
0.000279831
0.000122737
0.000303247
0.000433844
0.00050978
0.000553759
0.000581071
0.000596594
0.000601635
0.000596965
0.000583479
0.000562441
0.000535591
0.000504522
0.000470076
0.000433109
0.000394307
0.000354229
0.000313593
0.000273513
0.00023677
0.000207243
0.000185977
0.000173683
0.000169567
0.000171419
0.000179716
0.000193562
0.000210843
0.000229124
0.000246295
0.000261165
0.000273326
0.000281102
0.000284934
0.000289577
0.000127025
0.000309514
0.000443882
0.00052426
0.000571821
0.000602162
0.000620513
0.000628194
0.000625839
0.000614162
0.000594453
0.000568585
0.000538914
0.000506399
0.000471591
0.000435027
0.000397254
0.000358847
0.000320414
0.000282558
0.000247438
0.000218051
0.000195221
0.000179354
0.000171836
0.000170593
0.000175333
0.000188555
0.000208025
0.000230646
0.000252092
0.000269282
0.00028054
0.000288399
0.000308506
0.000130361
0.000316181
0.000452956
0.000534761
0.000583288
0.000614455
0.000633741
0.000642655
0.000642185
0.000633037
0.000616286
0.000593338
0.000565989
0.000535691
0.000503038
0.000468537
0.000432665
0.000395927
0.000358854
0.000322043
0.00028597
0.00025244
0.000223571
0.000199869
0.000182079
0.000172044
0.000169656
0.000173289
0.000187479
0.000209535
0.000235472
0.000260848
0.000281012
0.000296018
0.000326541
0.000132298
0.000320577
0.000461617
0.00054793
0.0005999
0.000633845
0.000655705
0.000667273
0.00066935
0.00066276
0.000648467
0.000627789
0.000602322
0.000573966
0.0005435
0.000511248
0.000477495
0.000442495
0.000406523
0.000369981
0.000333329
0.000296838
0.000261908
0.000230855
0.000204764
0.000184864
0.000173095
0.000172194
0.000179217
0.00019965
0.000228246
0.000259728
0.000283092
0.000303273
0.000331532
0.000132549
0.000323124
0.000466874
0.000555936
0.000609964
0.00064551
0.000668897
0.000682138
0.000686198
0.000681941
0.000670289
0.000652386
0.000629576
0.000603408
0.000575232
0.000545444
0.000514332
0.000482097
0.000448856
0.00041469
0.000379621
0.000343755
0.000307035
0.000270612
0.000236673
0.000206845
0.000184477
0.000174371
0.000179313
0.000197364
0.000227011
0.000259903
0.000284624
0.000304312
0.000335454
0.000132999
0.000326017
0.000474225
0.000568066
0.000625687
0.00066392
0.000689636
0.000705122
0.000711486
0.000709614
0.000700426
0.000684961
0.000664436
0.000640191
0.00061375
0.000585937
0.000556943
0.000526942
0.000496071
0.000464492
0.000432212
0.000399038
0.000364769
0.000328846
0.000292058
0.00025633
0.000223046
0.000196706
0.000185419
0.000195211
0.000221021
0.000256814
0.000286221
0.000314379
0.000367103
0.000132531
0.00032625
0.00047729
0.000574657
0.000635143
0.000675461
0.000702946
0.000720159
0.000728347
0.000728471
0.000721627
0.000708662
0.000690753
0.000669048
0.000644736
0.000619119
0.000592378
0.000564592
0.000535794
0.000506094
0.000475535
0.00044405
0.000411457
0.000377582
0.000341655
0.000304439
0.000268477
0.000235383
0.000210503
0.000202626
0.000219815
0.00025627
0.00028994
0.000325595
0.000384283
0.000130744
0.000326557
0.000481543
0.000584857
0.000649513
0.000692697
0.000722499
0.000741828
0.000752101
0.000754347
0.000749749
0.000739061
0.000723396
0.000703824
0.000681414
0.000657266
0.000632252
0.000606308
0.000579288
0.000551071
0.000521454
0.000490061
0.000456365
0.000420083
0.000380663
0.000337196
0.000292945
0.00025465
0.000228002
0.00021829
0.000228465
0.000262943
0.000299045
0.000334527
0.000378311
0.000125296
0.000322637
0.000481886
0.000589658
0.000658138
0.00070401
0.000735847
0.000756913
0.000768832
0.000772782
0.000770072
0.000761589
0.000748368
0.000731413
0.000711669
0.000690063
0.000667603
0.000644457
0.000620437
0.000595359
0.000568938
0.000540627
0.000509385
0.000473511
0.000431009
0.00037991
0.000322088
0.000268474
0.000232292
0.000222875
0.000238238
0.000275145
0.000307989
0.00033791
0.000376612
0.00012074
0.000321779
0.00048497
0.000598813
0.000672021
0.000721157
0.00075525
0.000778047
0.000791496
0.000796972
0.000795908
0.000789385
0.000778249
0.000763481
0.000745985
0.000726594
0.000706118
0.000685346
0.000664083
0.000642139
0.000619289
0.000595227
0.000569436
0.000540794
0.000507174
0.000464628
0.000410617
0.000349632
0.000285719
0.000241252
0.000240977
0.00027308
0.000308447
0.000342924
0.000418725
0.000116709
0.000321508
0.000490647
0.000608855
0.00068456
0.000735269
0.000770665
0.000794437
0.000808684
0.000815026
0.000814946
0.000810093
0.000800805
0.00078813
0.000772931
0.000756003
0.000738057
0.000719773
0.000701341
0.00068246
0.000662727
0.000641653
0.000618803
0.000593547
0.000564792
0.000529979
0.000486725
0.000437598
0.000379513
0.000315456
0.000273915
0.00027836
0.000313805
0.000369005
0.000492471
0.000115061
0.000326392
0.000503369
0.000626562
0.000704412
0.000755992
0.000791853
0.000815985
0.00083067
0.000837559
0.000838187
0.00083448
0.000826609
0.00081551
0.000802011
0.000786963
0.000771138
0.000755143
0.000739434
0.000723689
0.000707322
0.000689415
0.000668675
0.000643641
0.000613599
0.000578001
0.00053485
0.0004849
0.000429425
0.000364906
0.000308947
0.000300436
0.000332286
0.000392744
0.000500051
0.000115163
0.000335604
0.000520493
0.000645888
0.000723413
0.000774138
0.000809085
0.000832306
0.000846246
0.000852865
0.000854445
0.000852704
0.000846814
0.000837419
0.000825657
0.000812582
0.000799182
0.0007865
0.000774513
0.000763071
0.000751719
0.000739201
0.000723579
0.00070197
0.000671349
0.000628919
0.000574881
0.000514369
0.000448982
0.000385168
0.000337648
0.000328326
0.000354104
0.000406466
0.000494521
0.000120847
0.000353999
0.000547323
0.000673075
0.000748692
0.000797437
0.000830475
0.000851796
0.0008638
0.000868396
0.000868455
0.000866603
0.000862014
0.000854477
0.000845491
0.000836002
0.000826836
0.000818666
0.000811822
0.000805728
0.000802792
0.000800375
0.000795415
0.000781722
0.0007528
0.000703442
0.000637887
0.000562005
0.000475491
0.000394136
0.000351406
0.00035332
0.00038015
0.000422
0.000501982
0.00013568
0.000382113
0.000578929
0.000700073
0.000771103
0.0008164
0.000846468
0.000865037
0.000874462
0.000876728
0.000875058
0.000870068
0.000864706
0.000856754
0.000847445
0.00083807
0.000829756
0.000823672
0.000820596
0.000823357
0.000837592
0.00085802
0.000878036
0.000886102
0.000880388
0.000843358
0.000780124
0.000689722
0.000573764
0.000456462
0.000375619
0.000359434
0.000383838
0.000432795
0.0005896
0.000167768
0.000422861
0.000616261
0.000729593
0.00079507
0.000836525
0.000863257
0.000878663
0.000884943
0.000884682
0.000880205
0.000871661
0.000859512
0.000847275
0.00083473
0.000823322
0.00081501
0.000811693
0.000815685
0.000837435
0.000880464
0.000935868
0.000990053
0.00102478
0.00103147
0.00101531
0.000960191
0.000864216
0.000722348
0.000552416
0.000439498
0.000404621
0.000416859
0.000480304
0.000661303
0.00020871
0.000463897
0.000645917
0.000750386
0.000810796
0.000848922
0.000872808
0.000885564
0.000889303
0.000886781
0.000879565
0.000870466
0.000858219
0.000844889
0.000831415
0.000818816
0.000807757
0.000804366
0.000814037
0.000867246
0.000971242
0.00108139
0.0011565
0.00119119
0.00119351
0.00116447
0.00109881
0.000991315
0.000832737
0.00063307
0.000465619
0.000417134
0.000442993
0.000511576
0.000662399
0.000246067
0.00048797
0.000660169
0.000761805
0.000821357
0.000858843
0.000881868
0.000893712
0.000896621
0.000892873
0.000883955
0.000871789
0.000858332
0.000844572
0.000831282
0.000818342
0.000807614
0.000802189
0.000816614
0.000891776
0.00102616
0.00115337
0.00124093
0.00129391
0.00131626
0.00131022
0.0012682
0.00118215
0.00104035
0.000833203
0.00060004
0.000468917
0.000472849
0.000546254
0.000646648
0.000279352
0.000500558
0.000667431
0.000767661
0.000825461
0.00086203
0.000884687
0.000896651
0.000900178
0.00089778
0.000891234
0.000882036
0.000871195
0.000859236
0.000846313
0.000833019
0.000820418
0.000813259
0.00082038
0.000867411
0.000968877
0.00109898
0.00121998
0.00130691
0.00136928
0.00140612
0.00140861
0.00136205
0.00124538
0.00103915
0.000773764
0.000574855
0.000531564
0.000559114
0.000567516
0.000285698
0.000503138
0.000670477
0.0007714
0.000830058
0.000866628
0.000889716
0.000902283
0.000906244
0.00090469
0.000898956
0.000890885
0.00088169
0.000871805
0.00086103
0.000848845
0.000835245
0.000822304
0.000818799
0.00083465
0.000894842
0.000997558
0.00112807
0.00125443
0.00134227
0.00139718
0.00140815
0.00137006
0.00126146
0.00107184
0.000835365
0.000654903
0.000580437
0.000554973
0.00044431
0.000266755
0.000483021
0.00065924
0.000767316
0.000831145
0.000868111
0.000892141
0.000905981
0.00091127
0.000911195
0.000907224
0.0009012
0.000894596
0.000888072
0.00088131
0.000873149
0.000862302
0.000848289
0.000833842
0.000831466
0.000853079
0.000920432
0.00102805
0.00113883
0.00122186
0.00128029
0.00131124
0.00130486
0.00121876
0.00105122
0.00085484
0.000697085
0.00059336
0.000506857
0.000336647
0.000242194
0.000472095
0.000655077
0.000765992
0.000829865
0.000868591
0.000894134
0.000909419
0.000916555
0.000917617
0.000915291
0.000910767
0.000905895
0.000901892
0.000899321
0.000897294
0.000893598
0.00088553
0.000870892
0.000851059
0.000842612
0.000855122
0.000904164
0.000997543
0.00108948
0.00114282
0.00115746
0.00113961
0.00107663
0.000980836
0.000854601
0.000725197
0.000600625
0.000479938
0.00030381
0.000204371
0.000455805
0.000647691
0.000763617
0.000830291
0.000870396
0.000897218
0.000913437
0.000921342
0.000923354
0.000922529
0.000918987
0.000915332
0.000912573
0.000912745
0.000915895
0.000920534
0.000924265
0.000924105
0.000914817
0.000890807
0.000859123
0.000849331
0.00087363
0.000947144
0.0010264
0.0010746
0.00107614
0.00103024
0.000945342
0.000847252
0.000731128
0.000614534
0.000481642
0.000308565
0.000187189
0.000452853
0.000647503
0.000764251
0.000830402
0.000872968
0.000901032
0.000918271
0.000927087
0.000929718
0.000928142
0.000924713
0.000922273
0.000922436
0.000925616
0.000932215
0.000941815
0.000953104
0.000969143
0.000987263
0.000996753
0.000984487
0.000939993
0.000877711
0.000837556
0.000851232
0.000898319
0.00094882
0.000968407
0.000940391
0.000862599
0.00076146
0.000651963
0.00051812
0.000417157
0.000186339
0.000455793
0.000654987
0.000774283
0.000842063
0.00088356
0.000909767
0.000924754
0.000931307
0.000932317
0.000929545
0.000924561
0.000922179
0.000923556
0.000928138
0.000937873
0.000954594
0.000982653
0.00102086
0.00106423
0.00110078
0.00111158
0.00109209
0.00103233
0.00094878
0.000876014
0.000844787
0.000845733
0.000860449
0.000882438
0.000864015
0.000798766
0.000703514
0.000596024
0.000602059
0.000193984
0.000468523
0.000667092
0.000782727
0.000848324
0.000888626
0.000914028
0.00092812
0.000933182
0.000930493
0.00092551
0.000920393
0.00091636
0.000914405
0.000916074
0.000925802
0.000946829
0.000985372
0.00104468
0.00112905
0.00122317
0.00129769
0.00131924
0.00128764
0.00118997
0.00106497
0.000939927
0.000852333
0.000827092
0.000825615
0.000824648
0.000797942
0.000736244
0.000674049
0.000740079
0.000225069
0.000497332
0.000689605
0.000799234
0.000860717
0.000897581
0.000919657
0.000930781
0.000930951
0.000928044
0.000921426
0.000914158
0.000908283
0.0009054
0.000906114
0.000912573
0.000930917
0.000975693
0.00106343
0.00120019
0.00135062
0.00147602
0.00154343
0.00153926
0.00148526
0.00137383
0.00121449
0.00103116
0.000882523
0.000821326
0.000806658
0.000788114
0.000751297
0.000721538
0.000754578
0.000252946
0.000514999
0.000699176
0.000804638
0.000864374
0.000899449
0.000920123
0.000930468
0.000929756
0.000925904
0.000918648
0.000909989
0.000901715
0.000895888
0.000893492
0.000896588
0.000913104
0.000959016
0.00106708
0.00124008
0.00144107
0.00160662
0.00170325
0.0017271
0.00169446
0.00160419
0.00145976
0.00126366
0.00103599
0.000872651
0.000809679
0.000790288
0.000769882
0.000744369
0.000711308
0.000275977
0.0005308
0.000707852
0.000809524
0.00086795
0.00090243
0.00092206
0.000930858
0.000929263
0.000924216
0.000916332
0.000907724
0.000901208
0.000893866
0.000890062
0.000889577
0.000898116
0.000938641
0.00104253
0.00122597
0.00144421
0.0016339
0.00176524
0.00182381
0.00181987
0.0017565
0.00163224
0.0014445
0.00119473
0.000944998
0.000822765
0.000788208
0.000769345
0.000734969
0.00059881
0.000295393
0.00053555
0.000708613
0.000810118
0.000868247
0.000903738
0.000922866
0.000928198
0.000927683
0.000922843
0.000916459
0.000909358
0.000901699
0.000894265
0.000890578
0.00088954
0.000893275
0.000909738
0.000983788
0.00114735
0.00137838
0.00160409
0.00177498
0.00187318
0.00190625
0.00187467
0.00177573
0.0016065
0.00136049
0.00106373
0.00085583
0.000788659
0.000756394
0.000702456
0.00052585
0.000303867
0.000536257
0.00070542
0.000806531
0.000868059
0.000903142
0.000921438
0.000926566
0.000926114
0.000921574
0.000915545
0.000909166
0.000902019
0.000895678
0.000890628
0.000889966
0.000894797
0.000907083
0.0009489
0.00107885
0.00130967
0.00156621
0.00176985
0.00190769
0.0019843
0.00199303
0.00192848
0.00178503
0.0015603
0.00125915
0.000960357
0.000805795
0.000749156
0.000674999
0.000485986
0.000303011
0.000529055
0.000699699
0.000803081
0.000864371
0.000901504
0.000919208
0.000925611
0.000925172
0.000920138
0.00091321
0.000906639
0.000900754
0.000896608
0.000895718
0.000897426
0.000900341
0.000906797
0.000920534
0.000961233
0.00111126
0.00137487
0.00165377
0.00185747
0.00197971
0.00203352
0.00201717
0.00191464
0.00172312
0.00144497
0.00112325
0.000874363
0.000752671
0.000655749
0.000455479
0.000293985
0.000519835
0.000692959
0.000798573
0.000859916
0.000895859
0.000915195
0.000923542
0.000924398
0.000921261
0.000914919
0.000908451
0.000903037
0.000901467
0.000903829
0.00090979
0.000916332
0.00092122
0.000926252
0.000944752
0.000999242
0.00116371
0.00142319
0.00169304
0.00189293
0.00200145
0.00201615
0.00195816
0.00181123
0.00156979
0.00126774
0.000988175
0.00080176
0.000654854
0.000429327
0.000283786
0.000511948
0.000688715
0.000796483
0.000858714
0.000895707
0.000915116
0.000923328
0.000923928
0.000920906
0.00091464
0.000908575
0.000905518
0.000906442
0.000911342
0.000922521
0.000936627
0.0009489
0.000954771
0.000956528
0.000974343
0.00104184
0.00122927
0.0014814
0.00172533
0.00189424
0.00197582
0.0019526
0.00183348
0.00163728
0.00137338
0.00110329
0.000878951
0.000678595
0.00042296
0.000277414
0.000510605
0.000688457
0.00079646
0.000858875
0.000894836
0.000913673
0.000921633
0.000921465
0.000915913
0.000907906
0.000901212
0.000899512
0.000904439
0.000915959
0.000933641
0.000958462
0.000984716
0.00100393
0.00100825
0.00100082
0.00100997
0.00109477
0.0012881
0.00151971
0.00172084
0.00184715
0.00188035
0.00181565
0.00165208
0.00143561
0.00119503
0.000958516
0.000715638
0.000425767
0.000275267
0.000510524
0.000688666
0.00079635
0.000858077
0.000895607
0.000913117
0.000920022
0.000919249
0.000913471
0.000906
0.00090012
0.000899169
0.000906399
0.000922227
0.000948909
0.000988827
0.00103606
0.00107862
0.00110183
0.00109536
0.00106077
0.00105074
0.00112678
0.00132168
0.00153162
0.00168949
0.00176457
0.00174992
0.00164645
0.00147316
0.00126378
0.00103554
0.00077348
0.00045986
0.000279726
0.000519814
0.000700185
0.000804191
0.0008619
0.000895329
0.000911548
0.000916029
0.000912887
0.000904448
0.000894698
0.000887469
0.000886219
0.000892651
0.000917034
0.000956348
0.00101525
0.00108747
0.00115943
0.00121637
0.00124499
0.00123333
0.00117727
0.00114136
0.00120276
0.00136685
0.0015386
0.00164859
0.00167025
0.00161037
0.00147445
0.00130387
0.00109771
0.000837738
0.000513195
0.000301524
0.000540981
0.000715156
0.000813064
0.000866775
0.000897441
0.000909648
0.000911054
0.00090527
0.000894168
0.000882513
0.000874577
0.000874615
0.000884575
0.000915757
0.000973987
0.00106193
0.00116694
0.00126657
0.00134254
0.00138804
0.0013972
0.00136509
0.0012952
0.0012483
0.00131177
0.00142791
0.00154222
0.00159074
0.0015628
0.0014657
0.00131567
0.00112872
0.000872421
0.000540319
0.000325147
0.000560567
0.000726883
0.000818295
0.000867997
0.000892693
0.000904694
0.000904862
0.000896627
0.000882576
0.000867826
0.000856972
0.00085507
0.000865988
0.0009034
0.000981108
0.00110019
0.00123455
0.0013523
0.00143813
0.00149322
0.00152643
0.00153274
0.0014957
0.00142057
0.00136897
0.00142641
0.00148602
0.00151609
0.00150035
0.00142906
0.00131296
0.00114921
0.000904565
0.000564364
0.000353917
0.000578474
0.000735191
0.000820152
0.00086417
0.000890301
0.000901401
0.000900263
0.000889788
0.000874265
0.000858158
0.000846113
0.000842645
0.000854212
0.000896016
0.000988515
0.00112022
0.00125969
0.00137537
0.00146388
0.0015315
0.00158326
0.00162419
0.00163447
0.00159818
0.00152977
0.00148058
0.00149235
0.00150513
0.00147635
0.00140777
0.0013024
0.00115128
0.000914558
0.000566998
0.000378112
0.000592591
0.000737273
0.000814729
0.000859676
0.000884804
0.000894937
0.000893022
0.000882158
0.000865886
0.000849002
0.00083657
0.000833304
0.000843367
0.000878418
0.000962055
0.00109781
0.00124202
0.00136175
0.00145496
0.00153194
0.00159957
0.00165904
0.00169658
0.0016977
0.00164831
0.00158117
0.00154088
0.00151098
0.00146561
0.00139331
0.001293
0.00114981
0.000912916
0.000555592
0.0003934
0.000594117
0.000730353
0.000809367
0.000854192
0.000879808
0.000890287
0.000889084
0.000878834
0.000863209
0.000846974
0.000834366
0.000830674
0.000839093
0.000867416
0.000929399
0.00104539
0.00119129
0.00132152
0.00142944
0.00152484
0.00160987
0.00168708
0.00174416
0.00176189
0.00172638
0.00165092
0.00157931
0.00152304
0.00146673
0.00138471
0.00128379
0.00114533
0.000913116
0.000549213
0.000415726
0.00059677
0.000726109
0.000801551
0.000846048
0.000872232
0.000883032
0.000882932
0.000874179
0.00086072
0.000842918
0.000827205
0.000821904
0.000830918
0.000861839
0.0009244
0.00102937
0.00117174
0.00130749
0.00143217
0.00154815
0.00165569
0.00174708
0.00181321
0.00183836
0.00180902
0.00173247
0.00164014
0.00155433
0.00147112
0.00138288
0.00127944
0.00114408
0.000917359
0.000554602
0.000422923
0.00058517
0.000713037
0.000791832
0.000838762
0.000866548
0.000878863
0.000879531
0.000871598
0.000857923
0.000841306
0.000826065
0.000815905
0.000817815
0.000839848
0.000891696
0.000982241
0.00111225
0.00126374
0.00141782
0.00156434
0.00169838
0.00180809
0.00188499
0.00191751
0.00189902
0.00182359
0.00171361
0.00159908
0.00149143
0.00138829
0.00128201
0.00114509
0.000921911
0.000561786
0.0004248
0.000573018
0.000702173
0.000781919
0.000829431
0.000858126
0.000872356
0.000874502
0.000868725
0.000856163
0.000840459
0.000823524
0.00081066
0.000806969
0.000822658
0.000868893
0.000951979
0.00107274
0.00121363
0.00136597
0.00153106
0.00167843
0.00179477
0.00188134
0.0019342
0.00194345
0.00189818
0.00180112
0.00167444
0.0015411
0.00141176
0.00128721
0.0011436
0.000919887
0.000558662
0.000412821
0.000551137
0.00068475
0.000769164
0.000819902
0.000851228
0.000867956
0.000872183
0.000869457
0.00085715
0.000840034
0.000824681
0.000810916
0.000801507
0.000798714
0.000815648
0.000875658
0.000984289
0.00112325
0.00126697
0.00142
0.00156914
0.00170816
0.00182694
0.00190795
0.00192913
0.00188986
0.00179591
0.00167075
0.00153944
0.00141145
0.0012849
0.00113074
0.000885129
0.00047985
0.000373073
0.000524534
0.000667731
0.000756379
0.000809148
0.000842466
0.000862015
0.000869255
0.000869336
0.000858281
0.000844715
0.000828966
0.000813516
0.000801169
0.000793981
0.000790637
0.000800707
0.000860433
0.000983402
0.00113899
0.00129452
0.00144095
0.00156133
0.00165555
0.00172835
0.00177133
0.00177469
0.00171944
0.00162123
0.00150442
0.00138116
0.00125104
0.00108774
0.000820832
0.000393623
0.000333867
0.00049996
0.000649721
0.000743259
0.000799185
0.00083485
0.000856763
0.000867754
0.000869878
0.000863465
0.000853253
0.000840415
0.000826251
0.000811994
0.000799438
0.000791929
0.000788935
0.000788638
0.000812142
0.000909981
0.00108974
0.00126349
0.00142029
0.00152997
0.00160075
0.00164393
0.00165106
0.00161436
0.00154159
0.0014491
0.00134291
0.00121816
0.00104965
0.000787261
0.000367831
0.000293009
0.000474904
0.000632547
0.000730941
0.000789697
0.000827451
0.000851622
0.000865049
0.0008689
0.000865887
0.000858139
0.000847834
0.000836632
0.000825575
0.000814881
0.000804359
0.000795198
0.000792252
0.000793662
0.000804564
0.000833545
0.0009626
0.00115163
0.00132675
0.00144252
0.00150072
0.00151878
0.00150585
0.00146137
0.0013908
0.00129918
0.00118925
0.00104108
0.00078702
0.000378718
0.000257664
0.000457109
0.000620039
0.000721755
0.000782647
0.000822104
0.000848049
0.00086346
0.0008699
0.000868932
0.000863515
0.000855175
0.000845272
0.000835554
0.000827276
0.000820736
0.00081504
0.000808769
0.000802556
0.000799686
0.00080487
0.000824655
0.000891938
0.00105936
0.00125539
0.00139743
0.00146151
0.00145757
0.00141939
0.00135652
0.00127939
0.00118305
0.00104304
0.000798667
0.000418079
0.000221661
0.000440228
0.000607049
0.000712935
0.000778391
0.000820107
0.000845647
0.000862411
0.000871808
0.000872227
0.000868806
0.000862743
0.000854229
0.000845358
0.000837533
0.000831775
0.000828346
0.000828184
0.000829936
0.000830888
0.000827434
0.000818276
0.000810482
0.000823803
0.000925564
0.00108739
0.00125843
0.00137453
0.00139584
0.00135777
0.00128389
0.00118902
0.00106273
0.000847474
0.000532027
0.000217367
0.000438797
0.000604769
0.000709704
0.000774978
0.000818502
0.000844988
0.000861795
0.000870545
0.000873884
0.000872002
0.000866586
0.000858391
0.000849839
0.000842587
0.000837782
0.000836271
0.000838727
0.000846827
0.000860196
0.000878214
0.000890457
0.000888729
0.000867087
0.000834211
0.000848191
0.000944314
0.00111377
0.00125621
0.00131427
0.00128358
0.00121055
0.00109936
0.00091717
0.000696756
0.00022408
0.000440946
0.000604686
0.000709848
0.000774612
0.000816482
0.000843842
0.000860893
0.000870306
0.000875345
0.000873985
0.000866353
0.000857936
0.000849648
0.000842984
0.000839379
0.000841151
0.000846777
0.000858398
0.000878236
0.000911137
0.000965827
0.00101546
0.00101597
0.000974443
0.000907806
0.000897101
0.000940707
0.00108855
0.00121253
0.00124933
0.00120972
0.00111937
0.000972914
0.000805547
0.000234747
0.000449331
0.000610716
0.000711901
0.00077448
0.000815671
0.000842399
0.000858061
0.000865257
0.000866666
0.00086416
0.000858878
0.000851225
0.000842947
0.000835405
0.000829695
0.000826665
0.000828264
0.000838358
0.000863069
0.000912257
0.000992559
0.00108105
0.00113607
0.0011291
0.00106628
0.000957939
0.000939055
0.00100084
0.00113616
0.00120542
0.00119465
0.00112985
0.00100546
0.000830556
0.000248739
0.000458538
0.000614769
0.000713242
0.000774879
0.000813826
0.000839903
0.000855575
0.000863402
0.000865538
0.000862778
0.000855066
0.000845032
0.00083474
0.000825532
0.00081838
0.000814323
0.000814621
0.00082114
0.000844648
0.000898697
0.00100044
0.00112996
0.00123132
0.00126691
0.0012364
0.00112197
0.000981934
0.000993308
0.00107945
0.00116557
0.00117498
0.00112944
0.00102255
0.000823651
0.000264485
0.00046975
0.000620966
0.000714962
0.000772417
0.000811298
0.00083623
0.000850157
0.000855947
0.000856408
0.000852902
0.000845863
0.000837118
0.00082799
0.000819275
0.000811518
0.000805386
0.000802161
0.000804662
0.000821769
0.000873137
0.000982669
0.00114112
0.00129165
0.00138003
0.00138652
0.00131596
0.00116071
0.00102939
0.00106483
0.00113053
0.00115223
0.00112182
0.00102578
0.000798117
0.000282613
0.00047632
0.000622111
0.000713298
0.000770801
0.000808532
0.000832512
0.000845989
0.000851765
0.000851862
0.000847288
0.000838731
0.00082844
0.000817877
0.000807903
0.000798973
0.000791532
0.000786573
0.000786422
0.000797621
0.000845254
0.000956592
0.00113153
0.00131931
0.00145876
0.00152198
0.00149857
0.00137951
0.00120147
0.00109146
0.0011233
0.00113625
0.00111089
0.0010239
0.000793235
0.000300411
0.0004823
0.000623928
0.000712981
0.000768335
0.000804363
0.000826852
0.000838845
0.000843192
0.000841949
0.000836521
0.000828199
0.000818756
0.000809328
0.000800324
0.000791848
0.000783781
0.000777063
0.000773317
0.000780186
0.000823365
0.000935566
0.00111562
0.00131566
0.00147982
0.00157893
0.00159518
0.00152321
0.00136069
0.00119467
0.00113424
0.00113006
0.00110158
0.00100842
0.00072874
0.000307077
0.000482979
0.00062082
0.000708905
0.000763824
0.000799766
0.000822125
0.000833927
0.000838019
0.00083661
0.000830924
0.000822373
0.000812834
0.000803325
0.000794169
0.00078558
0.000777871
0.000768638
0.000760932
0.000762017
0.000797276
0.000904347
0.00108572
0.00129161
0.00146751
0.00157559
0.00159928
0.00154538
0.0014146
0.00125655
0.00116456
0.00112538
0.00107908
0.000954702
0.000616946
0.000309377
0.000479126
0.000616611
0.000704613
0.000758993
0.000794201
0.000815896
0.000827117
0.000830659
0.000828875
0.000823294
0.000815385
0.000806822
0.000798587
0.000791056
0.000782708
0.000774148
0.000764848
0.000754487
0.000749085
0.000761568
0.000840019
0.00100245
0.00120568
0.00139248
0.00152053
0.00156794
0.00153117
0.00141861
0.00128603
0.00118658
0.00112372
0.00104992
0.000894694
0.000538771
0.000307443
0.000473125
0.000610332
0.00069882
0.000753632
0.000789164
0.000811049
0.000822339
0.000825782
0.000824163
0.000818821
0.000811476
0.000803696
0.000795803
0.000788398
0.000781757
0.000773445
0.00076442
0.00075418
0.000745162
0.000746154
0.000790831
0.000907271
0.00108077
0.00126367
0.00140389
0.00147694
0.0014767
0.00140853
0.00130106
0.00120575
0.00112447
0.0010268
0.000847168
0.000502411
0.000298662
0.000462883
0.000601663
0.000691647
0.000747154
0.000782957
0.000805027
0.000816544
0.000820207
0.000819166
0.000814815
0.000808889
0.000803913
0.000796963
0.000789762
0.000782269
0.000776082
0.000769619
0.000760147
0.000747818
0.000742784
0.000758665
0.000826952
0.000955362
0.00111987
0.00126907
0.00136605
0.00139582
0.00136515
0.00129417
0.00120902
0.00112399
0.00101387
0.000821041
0.000496259
0.000286029
0.00045218
0.000593314
0.000685182
0.000741783
0.000778193
0.000800682
0.000812583
0.000816645
0.000816206
0.000812779
0.000807737
0.000802405
0.000796758
0.000793247
0.000791843
0.000791251
0.00078928
0.000783437
0.000771677
0.000756312
0.000754974
0.000786132
0.000873584
0.00100576
0.00114247
0.00125115
0.00130956
0.00131105
0.00126711
0.0012
0.0011184
0.00100892
0.000814964
0.000498081
0.000268768
0.000439064
0.000583063
0.000677025
0.000734793
0.000771878
0.000794868
0.000807273
0.000812008
0.000812415
0.000810646
0.000807605
0.000804698
0.00080231
0.000800804
0.00080028
0.000802727
0.000805805
0.000806723
0.000801798
0.000787311
0.000771349
0.000774218
0.000824325
0.000929253
0.00104985
0.00115526
0.00122665
0.00125163
0.00123305
0.00118147
0.0011123
0.00100831
0.000815985
0.000501142
0.000250946
0.000428509
0.000575839
0.000671992
0.00073077
0.000768286
0.000791449
0.000803902
0.000808659