/*--------------------------------*- C++ -*----------------------------------*\
| =========                 |                                                 |
| \\      /  F ield         | OpenFOAM: The Open Source CFD Toolbox           |
|  \\    /   O peration     | Version:  2.0.x                                 |
|   \\  /    A nd           | Web:      www.OpenFOAM.org                      |
|    \\/     M anipulation  |                                                 |
\*---------------------------------------------------------------------------*/
FoamFile
{
    version     2.0;
    format      ascii;
    class       volScalarField;
    location    "250";
    object      mut;
}
// * * * * * * * * * * * * * * * * * * * * * * * * * * * * * * * * * * * * * //

dimensions      [1 -1 -1 0 0 0 0];

internalField   nonuniform List<scalar> 
78750
(
8.60693e-09
1.38845e-05
1.5674e-05
1.33303e-05
1.2416e-05
1.2294e-05
1.20037e-05
1.18226e-05
1.17944e-05
1.23212e-05
1.27406e-05
1.27722e-05
1.29769e-05
1.33852e-05
1.3762e-05
1.4316e-05
1.4526e-05
1.51394e-05
1.482e-05
1.52472e-05
1.67096e-05
1.60259e-05
1.59589e-05
1.5679e-05
1.5345e-05
1.47702e-05
1.4643e-05
1.46585e-05
1.41277e-05
1.35759e-05
1.29903e-05
1.2331e-05
1.14282e-05
9.12491e-06
5.66477e-08
4.78855e-09
3.13672e-06
4.29263e-06
5.97455e-06
8.29808e-06
1.08239e-05
1.4123e-05
1.83446e-05
2.1752e-05
2.48148e-05
2.72454e-05
2.84796e-05
3.17923e-05
3.43914e-05
3.73421e-05
4.04532e-05
4.45732e-05
4.82006e-05
4.98818e-05
4.98456e-05
4.67009e-05
4.38735e-05
4.3078e-05
3.46456e-05
3.21406e-05
3.11434e-05
2.89323e-05
2.51992e-05
2.10149e-05
1.94924e-05
1.76083e-05
1.56164e-05
1.30023e-05
1.20067e-05
2.28134e-07
1.516e-08
2.48442e-06
5.3465e-06
9.88593e-06
1.75803e-05
2.81202e-05
3.5513e-05
3.83048e-05
3.9632e-05
4.18449e-05
4.38587e-05
4.31501e-05
4.21657e-05
4.06562e-05
3.95195e-05
3.95055e-05
4.04363e-05
4.21799e-05
4.17442e-05
3.47787e-05
4.40351e-05
5.59038e-05
3.93822e-05
3.39415e-05
3.22761e-05
3.64555e-05
3.26475e-05
2.71399e-05
2.59313e-05
2.44513e-05
2.20242e-05
1.88829e-05
1.83137e-05
1.36937e-05
3.42011e-07
5.4264e-08
3.406e-06
9.61036e-06
2.33021e-05
3.73615e-05
4.2833e-05
4.50282e-05
4.50387e-05
4.099e-05
3.61216e-05
3.33733e-05
3.04589e-05
2.6892e-05
2.49354e-05
2.44561e-05
2.5602e-05
2.86309e-05
3.30534e-05
3.61791e-05
3.37654e-05
3.1002e-05
2.48168e-05
1.9478e-05
1.85376e-05
1.95112e-05
2.14735e-05
2.31456e-05
2.36374e-05
2.36043e-05
2.18818e-05
1.92462e-05
1.74553e-05
2.07379e-05
1.22011e-05
3.31908e-07
9.71655e-08
4.13068e-06
1.17638e-05
2.58565e-05
3.85119e-05
4.33265e-05
4.22825e-05
3.88503e-05
3.47811e-05
3.05475e-05
2.62377e-05
2.37125e-05
2.25058e-05
2.14987e-05
2.08549e-05
2.10515e-05
2.2896e-05
2.58927e-05
2.74436e-05
2.50798e-05
2.07195e-05
1.73075e-05
1.57321e-05
1.57582e-05
1.67639e-05
1.79877e-05
1.89484e-05
1.92748e-05
1.89109e-05
1.74995e-05
1.54062e-05
1.50999e-05
2.11272e-05
1.01226e-05
3.09448e-07
1.22602e-07
4.53634e-06
1.37192e-05
3.13869e-05
4.23893e-05
4.42455e-05
4.21005e-05
3.81167e-05
3.38973e-05
3.03977e-05
2.75486e-05
2.47877e-05
2.23217e-05
2.05479e-05
1.96952e-05
1.9459e-05
1.98817e-05
2.13969e-05
2.34749e-05
2.48606e-05
2.44264e-05
2.19719e-05
1.90547e-05
1.70803e-05
1.63261e-05
1.63363e-05
1.65513e-05
1.64236e-05
1.55594e-05
1.39289e-05
1.25583e-05
1.33401e-05
2.06942e-05
9.11739e-06
2.93496e-07
1.38125e-07
4.64712e-06
1.38356e-05
3.10957e-05
4.26058e-05
4.46998e-05
4.25062e-05
3.85855e-05
3.43595e-05
3.05421e-05
2.75188e-05
2.53653e-05
2.37421e-05
2.22579e-05
2.07948e-05
1.95483e-05
1.87761e-05
1.8793e-05
1.96536e-05
2.18485e-05
2.47055e-05
2.6022e-05
2.53277e-05
2.25676e-05
1.92535e-05
1.67139e-05
1.50645e-05
1.38322e-05
1.26137e-05
1.13088e-05
1.04258e-05
1.16645e-05
1.97172e-05
8.49034e-06
2.93877e-07
1.45492e-07
4.8238e-06
1.45876e-05
3.26863e-05
4.37208e-05
4.54457e-05
4.33417e-05
3.9824e-05
3.61489e-05
3.28372e-05
2.99895e-05
2.76141e-05
2.57279e-05
2.42434e-05
2.2988e-05
2.17988e-05
2.06565e-05
1.96892e-05
1.89044e-05
1.99765e-05
2.23254e-05
2.36089e-05
2.52654e-05
2.55114e-05
2.33123e-05
1.94334e-05
1.56889e-05
1.28338e-05
1.07559e-05
9.25081e-06
8.69656e-06
1.02939e-05
1.856e-05
8.18099e-06
3.03946e-07
1.5057e-07
4.80318e-06
1.43038e-05
3.20986e-05
4.40193e-05
4.66533e-05
4.51943e-05
4.1982e-05
3.83277e-05
3.49412e-05
3.21092e-05
2.98433e-05
2.80708e-05
2.66517e-05
2.54506e-05
2.43568e-05
2.32839e-05
2.21834e-05
2.10194e-05
1.95042e-05
1.98861e-05
2.09468e-05
2.1366e-05
2.30488e-05
2.27175e-05
2.00877e-05
1.60332e-05
1.23142e-05
9.59394e-06
8.0497e-06
7.72394e-06
9.22251e-06
1.68312e-05
8.03271e-06
3.23697e-07
1.54519e-07
4.88719e-06
1.45728e-05
3.25642e-05
4.46751e-05
4.75714e-05
4.64149e-05
4.35731e-05
4.03254e-05
3.72759e-05
3.46513e-05
3.24921e-05
3.07817e-05
2.94608e-05
2.83994e-05
2.74649e-05
2.65509e-05
2.55799e-05
2.45071e-05
2.32759e-05
2.13451e-05
2.10613e-05
2.01749e-05
1.84183e-05
1.87192e-05
1.81203e-05
1.52998e-05
1.13859e-05
8.61037e-06
7.12799e-06
6.55434e-06
7.84531e-06
1.57445e-05
7.58523e-06
3.42355e-07
1.56814e-07
4.86286e-06
1.43223e-05
3.20172e-05
4.48672e-05
4.8692e-05
4.83475e-05
4.60797e-05
4.3105e-05
4.01212e-05
3.74718e-05
3.52577e-05
3.34686e-05
3.20993e-05
3.10774e-05
3.02763e-05
2.95569e-05
2.87855e-05
2.7865e-05
2.67653e-05
2.5407e-05
2.28093e-05
2.13858e-05
1.9868e-05
1.65784e-05
1.44037e-05
1.23838e-05
9.84561e-06
7.42049e-06
6.00484e-06
5.82204e-06
7.78155e-06
1.69927e-05
7.0316e-06
3.47329e-07
1.57113e-07
4.87466e-06
1.42346e-05
3.1739e-05
4.50924e-05
4.94705e-05
4.95468e-05
4.76223e-05
4.49504e-05
4.22364e-05
3.9823e-05
3.78162e-05
3.61983e-05
3.49344e-05
3.40029e-05
3.33235e-05
3.2773e-05
3.2184e-05
3.13716e-05
3.02002e-05
2.86464e-05
2.66441e-05
2.31144e-05
2.07255e-05
1.72186e-05
1.30899e-05
1.07898e-05
8.52902e-06
6.61568e-06
5.65381e-06
5.7457e-06
7.87142e-06
1.72814e-05
6.81368e-06
3.5136e-07
1.57649e-07
4.83255e-06
1.3876e-05
3.09194e-05
4.49507e-05
5.02593e-05
5.11207e-05
4.97983e-05
4.74944e-05
4.49449e-05
4.25635e-05
4.05336e-05
3.88865e-05
3.75859e-05
3.66186e-05
3.59523e-05
3.54951e-05
3.51118e-05
3.46011e-05
3.37227e-05
3.22625e-05
3.01325e-05
2.72739e-05
2.26793e-05
1.98212e-05
1.53949e-05
1.05964e-05
8.10451e-06
6.37881e-06
5.42933e-06
5.44781e-06
7.20863e-06
1.53086e-05
6.99372e-06
3.84423e-07
1.57096e-07
4.80733e-06
1.36773e-05
3.02437e-05
4.4685e-05
5.07244e-05
5.21194e-05
5.11837e-05
4.91975e-05
4.69457e-05
4.48672e-05
4.31346e-05
4.17782e-05
4.07478e-05
3.99871e-05
3.94921e-05
3.92e-05
3.90012e-05
3.87353e-05
3.81686e-05
3.70024e-05
3.49646e-05
3.18828e-05
2.76162e-05
2.12222e-05
1.74811e-05
1.26816e-05
8.42152e-06
6.28504e-06
5.0447e-06
4.83497e-06
6.54955e-06
1.53969e-05
6.58296e-06
4.02263e-07
1.54983e-07
4.76236e-06
1.31944e-05
2.88923e-05
4.40089e-05
5.10446e-05
5.32242e-05
5.28835e-05
5.12919e-05
4.92459e-05
4.72389e-05
4.55134e-05
4.41695e-05
4.31992e-05
4.25489e-05
4.21802e-05
4.20745e-05
4.21334e-05
4.21865e-05
4.19842e-05
4.11817e-05
3.94386e-05
3.6674e-05
3.28796e-05
2.57545e-05
1.72757e-05
1.22076e-05
8.07584e-06
5.62699e-06
4.6737e-06
4.69073e-06
7.08248e-06
1.79965e-05
6.22446e-06
3.95817e-07
1.48534e-07
4.65155e-06
1.26738e-05
2.78632e-05
4.33019e-05
5.1144e-05
5.38286e-05
5.37732e-05
5.23606e-05
5.04638e-05
4.86152e-05
4.7065e-05
4.58994e-05
4.51016e-05
4.46032e-05
4.43289e-05
4.42478e-05
4.42827e-05
4.42795e-05
4.40277e-05
4.3236e-05
4.14623e-05
3.81992e-05
3.32813e-05
2.70978e-05
1.91942e-05
1.31392e-05
8.15547e-06
5.30429e-06
4.46286e-06
4.75312e-06
7.28003e-06
1.77723e-05
6.23911e-06
3.9405e-07
1.43141e-07
4.56205e-06
1.21163e-05
2.6468e-05
4.23439e-05
5.10475e-05
5.42889e-05
5.45975e-05
5.34227e-05
5.16671e-05
4.98905e-05
4.83801e-05
4.72394e-05
4.64738e-05
4.60236e-05
4.57968e-05
4.57039e-05
4.56835e-05
4.55891e-05
4.52289e-05
4.44076e-05
4.28747e-05
4.02402e-05
3.59172e-05
2.98944e-05
2.21479e-05
1.80787e-05
1.23395e-05
6.95256e-06
4.57295e-06
4.15842e-06
6.10243e-06
1.52574e-05
6.49126e-06
4.38159e-07
1.38369e-07
4.46865e-06
1.17363e-05
2.56042e-05
4.1685e-05
5.08833e-05
5.446e-05
5.50175e-05
5.40091e-05
5.2416e-05
5.08241e-05
4.95462e-05
4.86513e-05
4.81475e-05
4.79742e-05
4.80362e-05
4.8215e-05
4.84009e-05
4.84529e-05
4.81683e-05
4.7388e-05
4.61092e-05
4.42637e-05
4.01189e-05
3.31916e-05
2.39821e-05
2.04761e-05
1.6614e-05
9.61945e-06
5.7332e-06
4.37224e-06
5.21002e-06
1.21195e-05
6.77767e-06
5.1509e-07
1.3642e-07
4.38613e-06
1.13833e-05
2.50165e-05
4.14343e-05
5.08628e-05
5.44572e-05
5.50676e-05
5.42178e-05
5.28955e-05
5.15608e-05
5.05114e-05
4.98346e-05
4.95611e-05
4.96212e-05
4.99322e-05
5.0385e-05
5.08258e-05
5.10481e-05
5.07532e-05
4.96924e-05
4.75127e-05
4.40319e-05
4.05477e-05
3.69992e-05
3.00115e-05
2.03348e-05
1.60845e-05
1.02901e-05
5.92218e-06
4.46781e-06
5.49903e-06
1.49083e-05
6.38206e-06
5.22726e-07
1.36542e-07
4.33435e-06
1.12529e-05
2.50074e-05
4.17027e-05
5.08959e-05
5.41279e-05
5.44364e-05
5.35185e-05
5.22772e-05
5.12709e-05
5.07074e-05
5.04903e-05
5.05494e-05
5.08181e-05
5.12039e-05
5.16301e-05
5.19652e-05
5.17355e-05
5.06007e-05
4.80756e-05
4.55598e-05
4.26943e-05
3.92627e-05
3.4482e-05
2.78681e-05
2.36164e-05
1.70347e-05
9.03173e-06
5.61421e-06
4.8527e-06
6.7757e-06
1.86635e-05
6.22446e-06
5.16723e-07
1.43273e-07
4.32468e-06
1.13784e-05
2.57071e-05
4.25801e-05
5.1095e-05
5.38075e-05
5.38128e-05
5.28368e-05
5.16449e-05
5.07534e-05
5.0402e-05
5.05004e-05
5.08934e-05
5.14582e-05
5.19955e-05
5.2334e-05
5.22325e-05
5.06522e-05
4.69466e-05
4.31763e-05
3.9385e-05
3.63183e-05
3.3828e-05
3.16922e-05
2.70905e-05
2.62196e-05
1.96117e-05
1.00482e-05
6.00014e-06
5.11911e-06
7.49639e-06
2.00691e-05
6.3453e-06
5.24489e-07
1.60835e-07
4.43061e-06
1.19484e-05
2.72937e-05
4.38711e-05
5.13079e-05
5.34977e-05
5.33302e-05
5.24927e-05
5.15812e-05
5.10471e-05
5.09823e-05
5.15073e-05
5.23014e-05
5.31177e-05
5.35443e-05
5.32919e-05
5.30413e-05
4.80909e-05
4.0087e-05
3.53916e-05
3.3139e-05
3.17459e-05
3.16389e-05
3.07682e-05
3.51258e-05
3.77783e-05
2.64166e-05
1.5349e-05
7.89042e-06
5.45277e-06
6.85563e-06
1.72771e-05
6.48348e-06
6.15725e-07
1.98807e-07
4.70785e-06
1.30572e-05
2.96785e-05
4.52982e-05
5.17288e-05
5.37695e-05
5.38266e-05
5.3383e-05
5.29654e-05
5.29027e-05
5.32972e-05
5.41665e-05
5.54734e-05
5.67546e-05
5.84828e-05
5.7094e-05
4.66108e-05
3.78483e-05
3.25667e-05
2.85567e-05
2.67913e-05
2.76162e-05
3.63733e-05
4.46407e-05
4.12371e-05
3.90139e-05
3.22122e-05
2.10241e-05
1.13044e-05
7.12911e-06
7.97496e-06
1.89651e-05
6.85461e-06
6.90364e-07
2.47216e-07
5.09713e-06
1.44751e-05
3.21956e-05
4.63261e-05
5.18184e-05
5.37272e-05
5.39462e-05
5.3717e-05
5.37451e-05
5.44864e-05
5.58569e-05
5.75674e-05
5.9556e-05
6.10415e-05
5.8074e-05
5.08927e-05
4.07239e-05
2.73868e-05
2.00441e-05
1.95013e-05
2.60405e-05
3.8641e-05
4.82632e-05
5.49841e-05
5.81461e-05
5.49652e-05
4.42535e-05
2.86349e-05
1.51432e-05
8.35976e-06
8.29258e-06
2.03356e-05
7.00668e-06
6.9149e-07
2.91349e-07
5.36725e-06
1.54598e-05
3.33244e-05
4.61248e-05
5.11764e-05
5.28134e-05
5.29958e-05
5.27795e-05
5.27633e-05
5.32808e-05
5.4651e-05
5.66215e-05
5.84838e-05
5.92535e-05
5.59811e-05
4.45738e-05
2.8787e-05
1.80269e-05
1.59672e-05
2.12181e-05
3.3466e-05
4.75424e-05
5.92225e-05
6.53773e-05
6.63725e-05
6.28961e-05
5.3661e-05
3.75915e-05
2.04898e-05
1.05939e-05
9.35257e-06
2.33415e-05
7.08066e-06
6.75079e-07
3.30653e-07
5.72187e-06
1.60575e-05
3.36152e-05
4.60591e-05
5.08715e-05
5.23101e-05
5.2312e-05
5.18543e-05
5.1593e-05
5.17845e-05
5.28723e-05
5.47177e-05
5.61627e-05
5.49807e-05
5.20042e-05
4.17313e-05
2.63922e-05
1.73448e-05
1.57944e-05
2.08556e-05
2.95821e-05
3.87669e-05
5.25781e-05
6.28359e-05
6.49283e-05
6.13433e-05
5.26158e-05
3.8809e-05
2.42463e-05
1.51567e-05
1.51971e-05
2.64495e-05
6.74107e-06
5.92624e-07
3.38134e-07
5.89266e-06
1.69523e-05
3.43672e-05
4.61102e-05
5.08163e-05
5.23009e-05
5.20124e-05
5.11691e-05
5.07248e-05
5.11334e-05
5.20825e-05
5.32928e-05
5.4646e-05
5.54348e-05
5.29626e-05
4.58928e-05
3.59156e-05
2.3719e-05
1.56388e-05
1.60897e-05
1.96867e-05
2.56001e-05
4.07893e-05
5.23297e-05
5.64584e-05
5.29913e-05
4.48899e-05
3.49566e-05
2.62216e-05
2.15316e-05
2.37843e-05
2.4359e-05
6.1753e-06
4.64046e-07
3.15764e-07
5.67121e-06
1.57045e-05
3.25679e-05
4.5234e-05
5.01319e-05
5.15091e-05
5.1169e-05
5.03188e-05
4.97218e-05
4.95824e-05
4.99439e-05
5.07548e-05
5.17797e-05
5.2623e-05
5.26235e-05
5.00773e-05
4.26365e-05
3.30565e-05
2.28067e-05
1.5447e-05
1.618e-05
1.91062e-05
2.37532e-05
3.66973e-05
4.18918e-05
4.21851e-05
4.04883e-05
3.60787e-05
3.16827e-05
3.07493e-05
3.38519e-05
1.97752e-05
5.75234e-06
3.5153e-07
2.8676e-07
5.61962e-06
1.50092e-05
3.11229e-05
4.47706e-05
5.0246e-05
5.16172e-05
5.10458e-05
5.00003e-05
4.92559e-05
4.92183e-05
4.98564e-05
5.0871e-05
5.19408e-05
5.28109e-05
5.31008e-05
5.24311e-05
4.90692e-05
3.99634e-05
2.99129e-05
2.37439e-05
1.76272e-05
1.63791e-05
1.6357e-05
1.91743e-05
2.94039e-05
3.39717e-05
3.32191e-05
3.24391e-05
3.34928e-05
3.65186e-05
3.54762e-05
1.96552e-05
5.81692e-06
3.17189e-07
2.42062e-07
5.2882e-06
1.3828e-05
2.96335e-05
4.40512e-05
4.95654e-05
5.06321e-05
4.98626e-05
4.87046e-05
4.78657e-05
4.76553e-05
4.79317e-05
4.85717e-05
4.93537e-05
5.00943e-05
5.0411e-05
4.95538e-05
4.73039e-05
4.37254e-05
3.79842e-05
2.92409e-05
2.27934e-05
2.12125e-05
1.70242e-05
1.46691e-05
1.70537e-05
2.18906e-05
2.67311e-05
2.92345e-05
3.16655e-05
3.50697e-05
3.48602e-05
2.1628e-05
5.9618e-06
3.22155e-07
2.21756e-07
5.11261e-06
1.35818e-05
2.927e-05
4.36107e-05
4.96172e-05
5.0707e-05
4.97599e-05
4.85024e-05
4.76486e-05
4.73753e-05
4.76242e-05
4.82602e-05
4.90681e-05
4.97811e-05
5.00953e-05
4.95684e-05
4.748e-05
4.38318e-05
4.01534e-05
3.7551e-05
3.45718e-05
3.01383e-05
2.35341e-05
1.96449e-05
1.73106e-05
1.59711e-05
1.68799e-05
1.93363e-05
2.33859e-05
2.8623e-05
3.40595e-05
2.62703e-05
7.02906e-06
4.35458e-07
2.20752e-07
4.93581e-06
1.29012e-05
2.86239e-05
4.40027e-05
4.97307e-05
5.0716e-05
4.99161e-05
4.89688e-05
4.84445e-05
4.84653e-05
4.89292e-05
4.98042e-05
5.08019e-05
5.14887e-05
5.14734e-05
5.03627e-05
4.69602e-05
4.22714e-05
3.91606e-05
3.81131e-05
3.76151e-05
3.6019e-05
3.24874e-05
3.23812e-05
2.77919e-05
2.09506e-05
1.79816e-05
1.62838e-05
1.65429e-05
1.89572e-05
2.53518e-05
3.06274e-05
8.20876e-06
6.2811e-07
2.29796e-07
4.92079e-06
1.30445e-05
2.88261e-05
4.35611e-05
4.91062e-05
5.01625e-05
4.95304e-05
4.8872e-05
4.85852e-05
4.89549e-05
4.98707e-05
5.10398e-05
5.20555e-05
5.2464e-05
5.20916e-05
4.78328e-05
4.21706e-05
3.95917e-05
3.8562e-05
3.93156e-05
4.1831e-05
4.39123e-05
4.4929e-05
5.03765e-05
4.59311e-05
3.15551e-05
2.34055e-05
1.79896e-05
1.4698e-05
1.4372e-05
1.81463e-05
3.12586e-05
9.47296e-06
7.71987e-07
2.6654e-07
5.08157e-06
1.37366e-05
3.03823e-05
4.43153e-05
4.90959e-05
5.00253e-05
4.95879e-05
4.91408e-05
4.93447e-05
5.01243e-05
5.13917e-05
5.28359e-05
5.38433e-05
5.34442e-05
4.86768e-05
4.24573e-05
3.77721e-05
3.42354e-05
3.3946e-05
3.70699e-05
4.33341e-05
5.31796e-05
6.9726e-05
7.8828e-05
6.84638e-05
5.35693e-05
3.52312e-05
2.211e-05
1.5364e-05
1.29175e-05
1.54512e-05
3.13477e-05
9.88863e-06
7.87173e-07
2.99467e-07
5.20903e-06
1.4271e-05
3.12995e-05
4.43134e-05
4.85807e-05
4.94004e-05
4.9147e-05
4.89584e-05
4.9423e-05
5.0432e-05
5.18402e-05
5.31869e-05
5.36195e-05
5.12488e-05
4.55391e-05
3.70944e-05
2.89207e-05
2.58473e-05
2.88265e-05
3.80417e-05
5.39597e-05
7.53557e-05
9.06209e-05
9.25126e-05
8.77972e-05
7.3346e-05
5.00515e-05
2.78496e-05
1.63883e-05
1.27241e-05
1.5532e-05
3.38606e-05
9.95916e-06
7.42223e-07
3.26658e-07
5.36437e-06
1.48758e-05
3.22583e-05
4.43417e-05
4.80249e-05
4.85904e-05
4.82669e-05
4.80551e-05
4.83907e-05
4.92383e-05
5.04586e-05
5.16587e-05
5.17409e-05
4.91226e-05
4.19396e-05
3.20026e-05
2.44281e-05
2.23073e-05
2.66131e-05
3.80524e-05
5.66657e-05
7.67516e-05
8.97939e-05
9.73087e-05
9.71631e-05
8.58646e-05
6.26292e-05
3.59642e-05
1.91005e-05
1.39387e-05
1.7741e-05
3.80873e-05
1.01241e-05
6.25303e-07
3.49576e-07
5.44156e-06
1.52335e-05
3.262e-05
4.40307e-05
4.75848e-05
4.81262e-05
4.76844e-05
4.73515e-05
4.75497e-05
4.8378e-05
4.94989e-05
5.03948e-05
5.0339e-05
4.81237e-05
4.17533e-05
3.14548e-05
2.32319e-05
2.05299e-05
2.33183e-05
3.27537e-05
5.03188e-05
7.12692e-05
8.57374e-05
9.4389e-05
9.73463e-05
9.19528e-05
7.41146e-05
4.69937e-05
2.50558e-05
1.71577e-05
2.1121e-05
4.02055e-05
1.03915e-05
5.49459e-07
3.5957e-07
5.49208e-06
1.52162e-05
3.23828e-05
4.37499e-05
4.71589e-05
4.76921e-05
4.71029e-05
4.66152e-05
4.64061e-05
4.68392e-05
4.81371e-05
4.94219e-05
4.96691e-05
4.79082e-05
4.30954e-05
3.36976e-05
2.42742e-05
1.91754e-05
1.99447e-05
2.7683e-05
4.38592e-05
6.4814e-05
8.07394e-05
9.04067e-05
9.43185e-05
9.24261e-05
8.14791e-05
6.00369e-05
3.59504e-05
2.33041e-05
2.48472e-05
4.04332e-05
1.04627e-05
5.08015e-07
3.58559e-07
5.461e-06
1.53146e-05
3.19432e-05
4.30265e-05
4.68247e-05
4.72478e-05
4.65537e-05
4.59494e-05
4.57125e-05
4.59146e-05
4.64512e-05
4.74012e-05
4.82769e-05
4.78897e-05
4.46614e-05
3.95451e-05
3.07321e-05
2.16718e-05
1.74104e-05
1.94785e-05
2.99575e-05
4.86966e-05
6.66231e-05
7.98001e-05
8.61423e-05
8.71625e-05
8.17225e-05
6.78849e-05
4.86869e-05
3.36283e-05
3.17222e-05
3.95394e-05
1.02007e-05
4.76233e-07
3.4792e-07
5.36973e-06
1.47477e-05
3.10979e-05
4.2618e-05
4.63114e-05
4.68181e-05
4.63119e-05
4.55949e-05
4.5356e-05
4.55305e-05
4.61784e-05
4.68717e-05
4.72156e-05
4.7177e-05
4.62059e-05
4.27801e-05
3.59524e-05
2.67972e-05
1.94074e-05
1.67154e-05
2.07171e-05
3.23002e-05
4.92453e-05
6.71334e-05
7.79914e-05
8.05972e-05
7.81304e-05
7.06477e-05
5.8617e-05
4.72126e-05
4.26835e-05
4.01901e-05
9.88824e-06
4.48957e-07
3.35893e-07
5.2662e-06
1.43286e-05
3.06801e-05
4.24489e-05
4.61118e-05
4.66321e-05
4.60198e-05
4.52859e-05
4.49376e-05
4.50075e-05
4.54943e-05
4.62978e-05
4.70176e-05
4.70032e-05
4.61453e-05
4.35368e-05
3.89169e-05
3.31366e-05
2.57551e-05
1.86165e-05
1.62887e-05
2.14091e-05
3.38936e-05
4.9894e-05
6.55864e-05
7.34404e-05
7.39731e-05
7.02135e-05
6.45971e-05
5.84336e-05
5.37083e-05
4.07285e-05
1.00288e-05
4.4214e-07
3.28378e-07
5.2201e-06
1.42484e-05
3.05904e-05
4.23642e-05
4.61121e-05
4.6556e-05
4.58331e-05
4.5021e-05
4.44163e-05
4.42401e-05
4.46611e-05
4.54552e-05
4.61245e-05
4.61338e-05
4.51802e-05
4.35207e-05
4.05874e-05
3.54084e-05
2.89466e-05
2.27135e-05
1.76027e-05
1.81375e-05
2.43845e-05
3.37782e-05
4.77801e-05
6.09514e-05
6.79843e-05
6.99384e-05
6.88248e-05
6.67809e-05
6.19013e-05
4.06925e-05
1.01391e-05
4.44806e-07
3.25847e-07
5.16711e-06
1.3916e-05
2.99809e-05
4.2223e-05
4.6149e-05
4.65089e-05
4.5594e-05
4.45907e-05
4.39757e-05
4.38595e-05
4.41324e-05
4.4682e-05
4.51975e-05
4.49316e-05
4.34305e-05
4.1267e-05
3.934e-05
3.77652e-05
3.46312e-05
2.82335e-05
2.13909e-05
1.91984e-05
1.95726e-05
2.4207e-05
3.60963e-05
4.99442e-05
6.11097e-05
6.71829e-05
6.95909e-05
6.97371e-05
6.5618e-05
4.27377e-05
1.05762e-05
4.80111e-07
3.31118e-07
5.13017e-06
1.37571e-05
2.99541e-05
4.23399e-05
4.59602e-05
4.61775e-05
4.51481e-05
4.42117e-05
4.36728e-05
4.35723e-05
4.37722e-05
4.39949e-05
4.36762e-05
4.22425e-05
3.96336e-05
3.71692e-05
3.60907e-05
3.67625e-05
3.80666e-05
3.67451e-05
3.12293e-05
2.67271e-05
2.15187e-05
2.03147e-05
2.68065e-05
3.87179e-05
5.17944e-05
6.18157e-05
6.81696e-05
7.06563e-05
6.77272e-05
4.43746e-05
1.10547e-05
5.35413e-07
3.56852e-07
5.25759e-06
1.42339e-05
3.09137e-05
4.27865e-05
4.60238e-05
4.59939e-05
4.49254e-05
4.41293e-05
4.3797e-05
4.38429e-05
4.4142e-05
4.37894e-05
4.17967e-05
3.84265e-05
3.44032e-05
3.21722e-05
3.31575e-05
3.67047e-05
4.09917e-05
4.35055e-05
4.22741e-05
3.81015e-05
2.85487e-05
2.24835e-05
2.43737e-05
3.16728e-05
4.3406e-05
5.63863e-05
6.60987e-05
7.10615e-05
6.83633e-05
4.38349e-05
1.09302e-05
5.63422e-07
3.84717e-07
5.39474e-06
1.47486e-05
3.18546e-05
4.29403e-05
4.54931e-05
4.53438e-05
4.43553e-05
4.36059e-05
4.32786e-05
4.32065e-05
4.29642e-05
4.16774e-05
3.76409e-05
3.13383e-05
2.65856e-05
2.62701e-05
3.05978e-05
3.91145e-05
5.00565e-05
5.87571e-05
5.90117e-05
5.02322e-05
3.8128e-05
2.91746e-05
2.58991e-05
2.94419e-05
3.75892e-05
4.79871e-05
5.9272e-05
6.76013e-05
6.79306e-05
4.34055e-05
1.08133e-05
5.88314e-07
4.18641e-07
5.54196e-06
1.53021e-05
3.28306e-05
4.29841e-05
4.52623e-05
4.51472e-05
4.4227e-05
4.33216e-05
4.27711e-05
4.23955e-05
4.0927e-05
3.79438e-05
3.17783e-05
2.42886e-05
2.11032e-05
2.36336e-05
3.26792e-05
4.74106e-05
6.22589e-05
7.29913e-05
7.09269e-05
5.91493e-05
4.67896e-05
3.61245e-05
3.0384e-05
2.9721e-05
3.42675e-05
4.33996e-05
5.44633e-05
6.48404e-05
6.73925e-05
4.18546e-05
1.03554e-05
5.90953e-07
4.47143e-07
5.72155e-06
1.60552e-05
3.36433e-05
4.28266e-05
4.47561e-05
4.41892e-05
4.32377e-05
4.22353e-05
4.13102e-05
4.09807e-05
4.04329e-05
3.60035e-05
2.75803e-05
2.05403e-05
1.8372e-05
2.22608e-05
3.33272e-05
5.05155e-05
7.02559e-05
7.78056e-05
7.34637e-05
6.59335e-05
5.32433e-05
4.20578e-05
3.44095e-05
3.15659e-05
3.36122e-05
4.00514e-05
5.06684e-05
6.25548e-05
6.62935e-05
3.94268e-05
9.91763e-06
5.79017e-07
4.65147e-07
5.76692e-06
1.62443e-05
3.38423e-05
4.28189e-05
4.39638e-05
4.29657e-05
4.17659e-05
4.13539e-05
4.17272e-05
4.18724e-05
4.05083e-05
3.54662e-05
2.69467e-05
1.97895e-05
1.71577e-05
1.9503e-05
2.86442e-05
4.80072e-05
6.51142e-05
7.21799e-05
8.00757e-05
7.6502e-05
6.22602e-05
4.83843e-05
3.88411e-05
3.38617e-05
3.36058e-05
3.80208e-05
4.72278e-05
5.93206e-05
6.42887e-05
3.7773e-05
9.74146e-06
5.7238e-07
4.91423e-07
5.89286e-06
1.7139e-05
3.55736e-05
4.26167e-05
4.3755e-05
4.341e-05
4.2774e-05
4.20412e-05
4.14822e-05
4.1122e-05
4.02917e-05
3.65897e-05
2.87567e-05
2.00074e-05
1.5337e-05
1.66449e-05
2.6767e-05
4.44793e-05
5.83817e-05
7.33427e-05
8.64562e-05
8.91601e-05
7.5411e-05
5.80721e-05
4.45007e-05
3.7431e-05
3.52364e-05
3.70679e-05
4.46762e-05
5.67774e-05
6.3379e-05
3.82356e-05
9.63134e-06
5.78013e-07
4.99893e-07
5.94207e-06
1.74479e-05
3.45478e-05
4.21059e-05
4.37295e-05
4.31524e-05
4.20663e-05
4.14667e-05
4.15031e-05
4.17127e-05
4.15236e-05
3.9565e-05
3.32804e-05
2.3497e-05
1.62695e-05
1.44472e-05
1.99732e-05
3.36921e-05
4.80711e-05
6.78746e-05
8.64082e-05
9.41878e-05
8.5143e-05
6.89403e-05
5.22882e-05
4.12561e-05
3.69231e-05
3.80023e-05
4.39826e-05
5.51566e-05
6.4071e-05
3.79178e-05
9.54843e-06
5.85548e-07
5.02099e-07
5.94051e-06
1.73475e-05
3.4716e-05
4.19575e-05
4.36044e-05
4.35789e-05
4.30146e-05
4.24836e-05
4.22034e-05
4.23417e-05
4.24675e-05
4.14743e-05
3.78126e-05
2.85033e-05
1.89751e-05
1.46105e-05
1.6377e-05
2.61395e-05
3.98225e-05
5.30385e-05
7.30722e-05
8.45123e-05
8.06915e-05
6.99563e-05
5.84389e-05
4.79205e-05
4.11198e-05
4.00604e-05
4.59297e-05
5.84586e-05
6.45124e-05
3.73803e-05
9.46962e-06
5.82293e-07
4.87989e-07
5.93076e-06
1.72076e-05
3.38193e-05
4.16362e-05
4.38514e-05
4.38689e-05
4.31063e-05
4.26233e-05
4.24182e-05
4.25002e-05
4.28135e-05
4.2708e-05
4.078e-05
3.66754e-05
2.72857e-05
1.68343e-05
1.40158e-05
1.92224e-05
2.753e-05
3.40164e-05
5.00365e-05
6.29004e-05
6.75291e-05
6.4563e-05
5.6656e-05
4.89008e-05
4.43927e-05
4.53635e-05
5.11741e-05
6.06568e-05
6.37457e-05
3.38376e-05
8.75665e-06
5.00302e-07
4.41168e-07
5.75632e-06
1.63597e-05
3.29298e-05
4.15956e-05
4.42035e-05
4.45433e-05
4.38577e-05
4.30816e-05
4.23454e-05
4.21951e-05
4.25135e-05
4.30044e-05
4.27668e-05
4.02468e-05
3.55187e-05
2.82199e-05
1.7092e-05
1.37126e-05
1.86977e-05
2.46712e-05
2.95932e-05
4.39994e-05
5.11095e-05
5.09755e-05
4.99185e-05
4.87368e-05
4.8794e-05
5.14274e-05
5.85235e-05
6.63699e-05
6.15196e-05
3.09204e-05
8.37422e-06
4.10532e-07
3.94948e-07
5.56234e-06
1.54908e-05
3.16886e-05
4.15266e-05
4.45403e-05
4.48555e-05
4.41832e-05
4.35026e-05
4.30475e-05
4.29493e-05
4.31061e-05
4.34643e-05
4.38773e-05
4.37944e-05
4.09594e-05
3.53777e-05
2.99105e-05
1.83681e-05
1.30031e-05
1.62072e-05
2.02307e-05
2.41692e-05
3.67103e-05
4.37418e-05
4.4708e-05
4.56392e-05
4.83771e-05
5.44358e-05
6.29448e-05
6.65815e-05
5.909e-05
3.04304e-05
8.57473e-06
3.83676e-07
3.46751e-07
5.32518e-06
1.45024e-05
3.01693e-05
4.13907e-05
4.52108e-05
4.59271e-05
4.53903e-05
4.45405e-05
4.38994e-05
4.36333e-05
4.3737e-05
4.41032e-05
4.46714e-05
4.53171e-05
4.54902e-05
4.42156e-05
3.86466e-05
3.1574e-05
2.17344e-05
1.39252e-05
1.38469e-05
1.57256e-05
1.86481e-05
2.7224e-05
3.62376e-05
4.27349e-05
4.75433e-05
5.24707e-05
5.77591e-05
6.29622e-05
5.99218e-05
3.24424e-05
8.83084e-06
3.95028e-07
3.05022e-07
5.09692e-06
1.36561e-05
2.90186e-05
4.13585e-05
4.57343e-05
4.64753e-05
4.58505e-05
4.4974e-05
4.43295e-05
4.416e-05
4.44461e-05
4.49623e-05
4.54265e-05
4.56082e-05
4.5687e-05
4.4971e-05
4.32943e-05
4.03528e-05
3.42938e-05
2.34307e-05
1.54623e-05
1.33295e-05
1.34995e-05
1.59837e-05
2.28074e-05
3.16489e-05
4.0662e-05
4.80806e-05
5.42438e-05
6.12501e-05
6.0567e-05
3.37782e-05
9.28263e-06
4.35996e-07
2.62494e-07
4.73672e-06
1.26089e-05
2.80587e-05
4.07831e-05
4.52152e-05
4.5919e-05
4.54327e-05
4.4821e-05
4.43759e-05
4.44425e-05
4.49949e-05
4.585e-05
4.68155e-05
4.75779e-05
4.79826e-05
4.75669e-05
4.57421e-05
4.17794e-05
3.66712e-05
3.11813e-05
2.43002e-05
1.71568e-05
1.34949e-05
1.40252e-05
1.53188e-05
1.77254e-05
2.36784e-05
3.27077e-05
4.37514e-05
5.28091e-05
5.58118e-05
3.77367e-05
1.00406e-05
5.54649e-07
2.57426e-07
4.68519e-06
1.22886e-05
2.68471e-05
4.00836e-05
4.51198e-05
4.61258e-05
4.57846e-05
4.53333e-05
4.52441e-05
4.5594e-05
4.63489e-05
4.74289e-05
4.87183e-05
5.01287e-05
5.09929e-05
5.1037e-05
4.96057e-05
4.60084e-05
3.97035e-05
3.2185e-05
2.64224e-05
2.27023e-05
1.89372e-05
1.87763e-05
1.59714e-05
1.30581e-05
1.51377e-05
2.05076e-05
2.9137e-05
4.08411e-05
5.06595e-05
4.196e-05
1.08061e-05
7.25916e-07
2.65362e-07
4.61289e-06
1.23271e-05
2.75237e-05
4.06925e-05
4.55475e-05
4.67703e-05
4.66692e-05
4.65154e-05
4.67639e-05
4.73723e-05
4.82619e-05
4.95585e-05
5.10926e-05
5.26051e-05
5.37498e-05
5.40198e-05
5.23156e-05
4.73311e-05
3.88057e-05
3.13204e-05
2.79052e-05
2.64774e-05
2.48684e-05
2.70894e-05
2.31034e-05
1.52363e-05
1.2666e-05
1.45322e-05
2.01287e-05
3.09786e-05
4.57424e-05
4.38107e-05
1.09935e-05
8.38669e-07
2.77968e-07
4.63467e-06
1.23534e-05
2.73207e-05
4.01538e-05
4.49071e-05
4.61237e-05
4.60264e-05
4.58973e-05
4.61722e-05
4.70372e-05
4.84657e-05
5.02671e-05
5.22381e-05
5.40711e-05
5.52993e-05
5.51007e-05
5.20838e-05
4.5326e-05
3.60529e-05
2.85352e-05
2.51153e-05
2.51971e-05
2.76321e-05
3.42133e-05
3.18596e-05
1.95789e-05
1.38834e-05
1.29895e-05
1.68454e-05
2.55456e-05
4.18342e-05
4.43293e-05
1.08025e-05
8.64499e-07
2.94498e-07
4.7116e-06
1.26566e-05
2.78918e-05
4.03076e-05
4.47062e-05
4.5885e-05
4.59223e-05
4.59882e-05
4.6421e-05
4.73158e-05
4.85768e-05
5.01711e-05
5.19553e-05
5.36218e-05
5.46599e-05
5.41821e-05
5.0659e-05
4.25368e-05
3.25575e-05
2.50462e-05
2.23637e-05
2.3958e-05
3.12667e-05
4.00746e-05
3.64829e-05
2.60836e-05
1.68296e-05
1.38854e-05
1.54441e-05
2.2425e-05
3.80632e-05
4.56735e-05
1.07689e-05
8.57402e-07
3.13093e-07
4.80234e-06
1.29852e-05
2.84451e-05
4.02934e-05
4.43945e-05
4.53291e-05
4.52037e-05
4.51716e-05
4.55911e-05
4.65775e-05
4.804e-05
4.98344e-05
5.17462e-05
5.34152e-05
5.42525e-05
5.32178e-05
4.87098e-05
3.97972e-05
2.95111e-05
2.2368e-05
2.0124e-05
2.22034e-05
3.02852e-05
3.98729e-05
4.09605e-05
3.56536e-05
2.33183e-05
1.5738e-05
1.545e-05
2.09505e-05
3.70743e-05
4.7014e-05
1.06653e-05
8.31297e-07
3.34494e-07
4.88498e-06
1.32879e-05
2.89134e-05
4.02677e-05
4.41392e-05
4.51293e-05
4.50481e-05
4.50459e-05
4.54746e-05
4.64283e-05
4.77981e-05
4.95025e-05
5.13217e-05
5.29282e-05
5.36635e-05
5.24781e-05
4.76518e-05
3.81443e-05
2.75375e-05
2.05314e-05
1.83917e-05
2.04435e-05
2.84431e-05
3.87615e-05
4.30131e-05
4.28915e-05
3.24822e-05
2.03051e-05
1.60571e-05
2.08235e-05
3.69543e-05
4.68515e-05
1.06258e-05
8.26327e-07
3.55497e-07
5.00702e-06
1.36535e-05
2.91785e-05
4.03566e-05
4.39407e-05
4.47654e-05
4.4814e-05
4.4859e-05
4.53234e-05
4.63289e-05
4.78623e-05
4.98336e-05
5.18138e-05
5.33773e-05
5.40147e-05
5.25636e-05
4.72498e-05
3.74049e-05
2.62886e-05
1.92033e-05
1.73012e-05
1.95641e-05
2.65068e-05
3.5303e-05
4.08498e-05
4.23381e-05
3.51099e-05
2.49862e-05
1.96261e-05
2.33783e-05
4.08793e-05
4.34712e-05
1.00814e-05
7.59443e-07
3.6336e-07
5.06361e-06
1.38052e-05
2.94513e-05
4.02333e-05
4.37699e-05
4.45118e-05
4.44195e-05
4.44234e-05
4.49117e-05
4.59849e-05
4.75575e-05
4.94696e-05
5.14918e-05
5.3129e-05
5.37237e-05
5.21127e-05
4.63281e-05
3.60938e-05
2.52079e-05
1.82604e-05
1.6389e-05
1.87156e-05
2.39412e-05
3.07187e-05
3.70303e-05
3.87939e-05
3.42626e-05
2.73175e-05
2.43381e-05
3.08768e-05
4.96941e-05
3.74461e-05
9.45523e-06
6.43179e-07
3.66071e-07
5.07081e-06
1.38352e-05
2.94679e-05
4.01505e-05
4.35942e-05
4.42905e-05
4.4153e-05
4.40769e-05
4.44903e-05
4.55057e-05
4.7059e-05
4.89949e-05
5.10129e-05
5.2661e-05
5.31314e-05
5.12654e-05
4.53447e-05
3.51172e-05
2.44782e-05
1.73121e-05
1.52817e-05
1.70171e-05
2.06807e-05
2.59418e-05
3.19941e-05
3.53306e-05
3.41517e-05
3.08715e-05
3.10905e-05
4.09023e-05
5.50538e-05
3.41989e-05
9.08863e-06
5.61723e-07
3.63785e-07
5.05876e-06
1.37709e-05
2.9303e-05
3.99644e-05
4.34476e-05
4.41331e-05
4.39385e-05
4.37966e-05
4.41651e-05
4.51471e-05
4.67058e-05
4.86737e-05
5.06926e-05
5.22916e-05
5.2761e-05
5.07233e-05
4.47024e-05
3.48407e-05
2.46124e-05
1.71615e-05
1.45421e-05
1.58333e-05
1.83511e-05
2.17372e-05
2.67143e-05
3.10607e-05
3.32066e-05
3.40033e-05
3.7298e-05
4.78343e-05
5.60173e-05
3.19551e-05
8.71465e-06
5.23773e-07
3.53418e-07
4.99123e-06
1.35364e-05
2.88457e-05
3.9617e-05
4.31966e-05
4.39192e-05
4.37032e-05
4.34919e-05
4.37873e-05
4.47157e-05
4.62588e-05
4.83103e-05
5.03279e-05
5.18948e-05
5.23108e-05
5.05934e-05
4.52111e-05
3.58563e-05
2.56529e-05
1.84212e-05
1.45088e-05
1.46175e-05
1.62234e-05
1.85289e-05
2.29082e-05
2.68702e-05
3.01586e-05
3.40362e-05
4.04587e-05
5.07927e-05
5.58526e-05
3.09587e-05
8.46069e-06
5.1729e-07
3.38507e-07
4.90574e-06
1.32127e-05
2.82051e-05
3.92392e-05
4.29993e-05
4.37311e-05
4.34406e-05
4.3114e-05
4.32834e-05
4.40784e-05
4.55081e-05
4.73673e-05
4.935e-05
5.10623e-05
5.18911e-05
5.08314e-05
4.64584e-05
3.81991e-05
2.83071e-05
2.01876e-05
1.54202e-05
1.47631e-05
1.50559e-05
1.61314e-05
1.94783e-05
2.31143e-05
2.70252e-05
3.18469e-05
3.95077e-05
5.07733e-05
5.52873e-05
3.07014e-05
8.40405e-06
5.19161e-07
3.1813e-07
4.7743e-06