/*--------------------------------*- C++ -*----------------------------------*\
| =========                 |                                                 |
| \\      /  F ield         | OpenFOAM: The Open Source CFD Toolbox           |
|  \\    /   O peration     | Version:  2.0.x                                 |
|   \\  /    A nd           | Web:      www.OpenFOAM.org                      |
|    \\/     M anipulation  |                                                 |
\*---------------------------------------------------------------------------*/
FoamFile
{
    version     2.0;
    format      ascii;
    class       volScalarField;
    location    "250";
    object      omega;
}
// * * * * * * * * * * * * * * * * * * * * * * * * * * * * * * * * * * * * * //

dimensions      [0 0 -1 0 0 0 0];

internalField   nonuniform List<scalar> 
78750
(
1022.64
4.53226
4.81136
5.04406
5.25124
5.43091
5.59034
5.72655
5.83532
5.91591
5.99093
6.02882
6.10531
6.16252
6.19924
6.21202
6.22776
6.22393
6.21706
6.20351
6.18834
6.16831
6.14813
6.12762
6.10657
6.08484
6.06209
6.03813
6.01232
5.98399
5.95172
5.9141
5.85946
5.63457
1092.55
1022.62
4.45528
4.88199
5.29261
5.65592
5.94864
6.2213
6.44617
6.59499
6.7021
6.77323
6.81658
6.80363
6.7679
6.72883
6.68678
6.64357
6.60105
6.56081
6.52382
6.49098
6.45819
6.42216
6.38375
6.3407
6.29587
6.24848
6.19947
6.14889
6.09664
6.04238
5.98194
5.87988
5.69117
1093.8
1022.69
4.91496
5.65415
6.20903
6.60414
6.86233
6.97977
7.01656
7.02266
7.00512
6.96143
6.89966
6.83076
6.73935
6.63049
6.50813
6.38401
6.27289
6.18308
6.11083
6.06588
6.05066
6.05591
6.0836
6.11899
6.14572
6.15558
6.15215
6.13221
6.09397
6.04375
5.98451
5.92374
5.92992
1094.63
1022.97
5.45578
6.24438
6.67614
6.88701
6.99399
7.05265
7.07495
7.06832
7.02439
6.94951
6.84277
6.6838
6.495
6.28396
6.06512
5.85625
5.67981
5.55388
5.48423
5.46604
5.48763
5.55621
5.65704
5.76697
5.86495
5.93951
5.99016
6.01641
6.02134
6.00647
5.97393
5.9644
6.02276
1094.56
1023.27
5.72517
6.41379
6.79402
7.01291
7.14717
7.22151
7.24078
7.21251
7.13091
7.00589
6.85033
6.68046
6.48613
6.27065
6.04325
5.82214
5.62996
5.47947
5.3738
5.32224
5.33183
5.39614
5.49534
5.60605
5.71049
5.799
5.86784
5.91558
5.94349
5.95543
5.96172
5.98415
6.0319
1094.4
1023.44
5.879
6.562
6.92094
7.11352
7.22487
7.28173
7.29144
7.25897
7.18528
7.07808
6.94176
6.77435
6.57899
6.36042
6.12585
5.88733
5.6654
5.48322
5.35649
5.29013
5.28016
5.31937
5.39596
5.49223
5.5913
5.68222
5.75995
5.82327
5.87294
5.91157
5.94593
5.9823
6.01532
1094.29
1023.55
5.95415
6.62943
6.99798
7.20513
7.33154
7.40217
7.42249
7.39496
7.32186
7.2103
7.07197
6.91341
6.73643
6.54083
6.32657
6.09701
5.86263
5.64232
5.46213
5.34127
5.28061
5.26797
5.29852
5.36473
5.45382
5.55096
5.64466
5.72878
5.80188
5.86566
5.92387
5.97253
6.0107
1094.3
1023.6
6.01552
6.69617
7.0621
7.26589
7.38989
7.45975
7.48275
7.46273
7.4034
7.30958
7.18806
7.04467
6.88219
6.70344
6.51061
6.30539
6.09044
5.87088
5.66252
5.48964
5.36152
5.28573
5.25906
5.26914
5.31928
5.40326
5.50769
5.61804
5.7228
5.81698
5.90054
5.96496
6.01521
1094.38
1023.64
6.04987
6.74566
7.12962
7.34758
7.48352
7.56474
7.59876
7.58897
7.53837
7.45196
7.33702
7.20314
7.05343
6.88955
6.71314
6.52598
6.33018
6.12819
5.92265
5.72562
5.55546
5.41926
5.32239
5.27523
5.26597
5.29374
5.37402
5.49246
5.63043
5.76336
5.87667
5.96519
6.039
1094.53
1023.67
6.08636
6.79018
7.17833
7.39913
7.53769
7.62235
7.66142
7.6598
7.62059
7.54795
7.44727
7.32563
7.18846
7.03763
6.87472
6.70124
6.5189
6.32971
6.13622
5.94062
5.75299
5.58651
5.44619
5.3386
5.27743
5.26194
5.2846
5.37269
5.50937
5.67183
5.83543
5.96651
6.08466
1094.67
1023.69
6.11045
6.83256
7.23891
7.47298
7.6221
7.71671
7.76642
7.77554
7.74772
7.68678
7.59775
7.48677
7.36151
7.22445
7.07645
6.91822
6.7503
6.57332
6.38852
6.19756
6.00132
5.80733
5.62892
5.47413
5.35348
5.28301
5.28073
5.33028
5.4633
5.64408
5.83875
5.9918
6.12596
1094.7
1023.69
6.12392
6.85795
7.27535
7.51728
7.67238
7.77283
7.82926
7.84665
7.82894
7.77984
7.70376
7.60581
7.49211
7.36774
7.234
7.09172
6.94137
6.78301
6.6165
6.44117
6.25674
6.06194
5.86214
5.66923
5.49357
5.35784
5.29611
5.3309
5.44802
5.6361
5.84285
5.99967
6.13368
1094.74
1023.7
6.14066
6.89358
7.33032
7.58594
7.75095
7.86006
7.92511
7.95178
7.94418
7.90603
7.84137
7.75477
7.65135
7.53724
7.41529
7.28605
7.14995
7.0073
6.85852
6.70328
6.54017
6.36757
6.18165
5.98551
5.78879
5.59895
5.44328
5.37343
5.43526
5.59525
5.81676
6.00908
6.19226
1095
1023.7
6.14189
6.90812
7.36016
7.62708
7.79993
7.91564
7.9873
8.02122
8.02188
7.99363
7.94003
7.86543
7.77419
7.67093
7.56064
7.4438
7.32046
7.19044
7.05389
6.91059
6.75977
6.59995
6.42956
6.2439
6.04606
5.84972
5.66495
5.52405
5.48281
5.59854
5.82873
6.03162
6.25036
1095.11
1023.68
6.14411
6.93005
7.40607
7.68888
7.87217
7.99626
8.07575
8.11769
8.12687
8.10829
8.06476
8.00055
7.9197
7.82626
7.7246
7.61791
7.5057
7.38711
7.26131
7.12694
6.98157
6.82166
6.64423
6.4447
6.21705
5.97737
5.76492
5.61998
5.57828
5.65515
5.86865
6.08951
6.30083
1095.06
1023.64
6.12372
6.93125
7.42757
7.7258
7.91929
8.05087
8.1368
8.18504
8.20097
8.19016
8.15596
8.10242
8.03331
7.95221
7.86266
7.76876
7.67085
7.56803
7.4594
7.34354
7.21773
7.07671
6.91138
6.70954
6.45669
6.15584
5.86038
5.65035
5.60028
5.70279
5.9313
6.13155
6.31329
1095.06
1023.61
6.11797
6.94616
7.46811
7.78481
7.99019
8.12961
8.22156
8.27533
8.2971
8.29294
8.26683
8.22224
8.16284
8.09205
8.01304
7.92896
7.84281
7.75369
7.66073
7.5629
7.4588
7.34609
7.21967
7.06953
6.8758
6.62213
6.32312
5.98649
5.72912
5.71535
5.91392
6.13201
6.34895
1095.45
1023.58
6.11794
6.97253
7.51166
7.83711
8.04769
8.19146
8.28661
8.34309
8.36812
8.36811
8.34837
8.31147
8.26095
8.20009
8.13194
8.05922
7.98459
7.90863
7.83001
7.74699
7.65739
7.55911
7.44909
7.32213
7.16627
6.96934
6.74123
6.46308
6.14009
5.92222
5.95339
6.16514
6.4875
1095.97
1023.56
6.14333
7.03186
7.58836
7.91963
8.13168
8.27599
8.3717
8.42932
8.45599
8.45815
8.44354
8.41264
8.36882
8.31539
8.25568
8.1927
8.12857
8.06508
8.00081
7.9333
7.85856
7.77093
7.66382
7.53307
7.3746
7.17821
6.94536
6.68086
6.36777
6.09474
6.07287
6.26854
6.60201
1095.99
1023.56
6.1913
7.11033
7.67076
7.9975
8.20435
8.34404
8.43568
8.49028
8.51607
8.52192
8.51487
8.49134
8.45434
8.40822
8.35697
8.30502
8.25519
8.20763
8.16178
8.11597
8.06517
8.00127
7.91168
7.78225
7.59857
7.35739
7.077
6.76549
6.46381
6.2514
6.23579
6.39145
6.66945
1095.94
1023.61
6.28792
7.23323
7.78638
8.10083
8.29738
8.42819
8.51168
8.5585
8.57661
8.57755
8.57012
8.55189
8.52274
8.48807
8.45126
8.41529
8.38306
8.3558
8.33112
8.31887
8.30879
8.28898
8.23476
8.11892
7.91747
7.63969
7.30372
6.90139
6.508
6.31071
6.35051
6.51452
6.74341
1096.02
1023.73
6.433
7.37506
7.89933
8.19138
8.37254
8.49089
8.56337
8.60018
8.6093
8.60265
8.58475
8.5639
8.53336
8.49752
8.46113
8.42828
8.40436
8.39268
8.40253
8.45553
8.53287
8.6094
8.64198
8.62227
8.48301
8.23663
7.86868
7.37101
6.8348
6.45
6.38699
6.52854
6.79365
1096.71
1024
6.63861
7.53963
8.02114
8.28706
8.45141
8.55597
8.61596
8.64077
8.64074
8.62334
8.59246
8.54764
8.50088
8.45343
8.41014
8.37453
8.35957
8.37405
8.45493
8.6148
8.82032
9.01995
9.14885
9.17739
9.1226
8.92419
8.56316
7.99852
7.26904
6.75697
6.61261
6.69817
7.02645
1097.29
1024.34
6.84037
7.66837
8.10613
8.34934
8.49963
8.59275
8.64245
8.65764
8.64929
8.62423
8.58932
8.54262
8.49136
8.4371
8.38827
8.35524
8.34441
8.37579
8.56553
8.94488
9.34213
9.61105
9.73685
9.75164
9.65916
9.43729
9.05885
8.46772
7.65373
6.88964
6.66342
6.81368
7.16989
1097.32
1024.66
6.95533
7.72901
8.15276
8.39164
8.53889
8.62831
8.67429
8.68615
8.67278
8.63955
8.5943
8.54383
8.49192
8.44373
8.39497
8.35129
8.33276
8.39234
8.66226
9.14821
9.59998
9.90535
10.0891
10.172
10.1626
10.0367
9.76219
9.28491
8.52733
7.56285
6.94618
6.97099
7.34484
1097.21
1024.93
7.01005
7.7575
8.17503
8.40697
8.55062
8.63855
8.68487
8.69889
8.69041
8.66612
8.6317
8.59116
8.54661
8.49846
8.44925
8.40435
8.38241
8.41746
8.60763
8.98081
9.43816
9.85014
10.1377
10.3401
10.4596
10.4712
10.3302
9.95462
9.25226
8.26113
7.43281
7.25391
7.38755
1096.52
1024.97
7.02335
7.77144
8.19011
8.42359
8.56654
8.65622
8.70532
8.72171
8.7173
8.697
8.66765
8.63384
8.59719
8.55694
8.51119
8.46
8.41211
8.40327
8.47171
8.71225
9.09253
9.54757
9.96628
10.2523
10.4324
10.4678
10.342
9.98242
9.33787
8.48145
7.77479
7.47005
7.36497
1095.52
1024.82
6.92864
7.72401
8.1738
8.42797
8.57291
8.66641
8.71997
8.74082
8.74124
8.7269
8.70485
8.68072
8.65706
8.6327
8.60304
8.56279
8.50965
8.45398
8.44626
8.53024
8.78748
9.18297
9.57169
9.84818
10.031
10.1215
10.1008
9.82752
9.2693
8.56672
7.95828
7.52436
7.13712
1094.71
1024.61
6.86906
7.70216
8.16782
8.4275
8.57564
8.67416
8.73343
8.76164
8.76684
8.7592
8.74307
8.72535
8.71083
8.70185
8.69552
8.68331
8.65453
8.60002
8.52323
8.48793
8.53135
8.71289
9.0588
9.39199
9.5798
9.62801
9.56475
9.34883
9.01361
8.56667
8.07256
7.56025
7.0263
1094.5
1024.3
6.79465
7.67266
8.16003
8.42257
8.58189
8.68594
8.74853
8.77926
8.78767
8.78556
8.77336
8.76043
8.75098
8.75178
8.76487
8.78394
8.80029
8.80233
8.7717
8.68474
8.56088
8.51287
8.58931
8.85407
9.14817
9.33381
9.35348
9.20491
8.90567
8.54998
8.10128
7.62431
7.04909
1094.55
1024.16
6.77806
7.66931
8.15847
8.42616
8.59211
8.70059
8.7671
8.80132
8.81171
8.80622
8.79572
8.78719
8.78852
8.8014
8.82749
8.8646
8.90682
8.96488
9.0331
9.0753
9.04315
8.89327
8.65986
8.48125
8.5129
8.66194
8.86043
8.95663
8.89303
8.61091
8.22935
7.79056
7.21307
1095.48
1024.16
6.796
7.70462
8.20126
8.4706
8.63236
8.73329
8.791
8.81643
8.82014
8.80664
8.79289
8.78579
8.79215
8.8102
8.84737
8.90982
9.01175
9.15156
9.30948
9.44503
9.49459
9.43752
9.23587
8.93754
8.65391
8.51199
8.49072
8.53645
8.61456
8.58283
8.35733
7.99856
7.57438
1096.91
1024.23
6.85641
7.75574
8.23539
8.4961
8.65261
8.74947
8.80404
8.82359
8.81335
8.79544
8.77662
8.76232
8.75601
8.76325
8.80039
8.87924
9.02121
9.23338
9.52779
9.85019
10.1064
10.1932
10.1043
9.79387
9.36916
8.9133
8.55952
8.44157
8.41913
8.42603
8.33831
8.11736
7.8905
1097.91
1024.48
6.99569
7.85253
8.30183
8.54422
8.68678
8.77102
8.81421
8.81588
8.80479
8.7776
8.75029
8.72993
8.72083
8.72524
8.75183
8.82212
8.98814
9.30281
9.77461
10.2708
10.6757
10.8957
10.8937
10.7423
10.4041
9.8929
9.25531
8.6866
8.43439
8.36267
8.3086
8.17651
8.08401
1098
1024.72
7.08165
7.89416
8.32421
8.55913
8.69461
8.77278
8.80679
8.81038
8.79814
8.77104
8.73832
8.70604
8.68653
8.67804
8.69106
8.75719
8.92952
9.3179
9.91263
10.5701
11.0834
11.3759
11.452
11.3633
11.1027
10.6686
10.0468
9.26494
8.62986
8.36541
8.30307
8.24576
8.16418
1097.63
1024.91
7.15534
7.93135
8.34271
8.57151
8.70468
8.77904
8.80788
8.80789
8.79289
8.76334
8.72931
8.70388
8.68304
8.67195
8.67163
8.70396
8.86032
9.24266
9.87852
10.5871
11.17
11.5591
11.7319
11.7263
11.5511
11.1926
10.6261
9.81874
8.91911
8.44239
8.30599
8.2446
8.12097
1096.76
1025.08
7.18008
7.93446
8.34361
8.56464
8.70635
8.7807
8.80447
8.80318
8.78522
8.76241
8.72779
8.70408
8.68236
8.66436
8.6651
8.683
8.75216
9.03448
9.61933
10.3879
11.0887
11.5934
11.8767
11.9757
11.8948
11.6218
11.1349
10.3842
9.38738
8.58592
8.32089
8.18554
7.98351
1096.22
1025.16
7.18495
7.92296
8.33075
8.56672
8.70162
8.77303
8.79505
8.79588
8.78064
8.76136
8.72934
8.70211
8.67767
8.66663
8.66507
8.68249
8.73888
8.90916
9.39677
10.1858
10.9892
11.5864
11.9809
12.1976
12.2287
12.0595
11.6651
11.0161
10.0755
9.02137
8.39052
8.16476
7.86892
1095.93
1025.15
7.15311
7.90016
8.32026
8.56425
8.70233
8.77247
8.7929
8.79157
8.7737
8.7498
8.72768
8.70573
8.68573
8.68004
8.68709
8.70114
8.73127
8.79245
8.95919
9.51974
10.4093
11.2656
11.8481
12.1877
12.3366
12.2946
12.0272
11.495
10.6701
9.61784
8.69192
8.19265
7.7966
1095.69
1025.08
7.1097
7.87271
8.30314
8.54594
8.68439
8.75382
8.7845
8.78697
8.7642
8.74467
8.72207
8.7083
8.69807
8.70746
8.73037
8.7559
8.77738
8.80407
8.88529
9.10345
9.7071
10.5697
11.3864
11.9544
12.2543
12.2993
12.1423
11.7389
11.0428
10.1008
9.13254
8.40911
7.80655
1095.48
1024.99
7.07022
7.8528
8.29582
8.53972
8.68143
8.75187
8.78313
8.78564
8.76405
8.74451
8.72298
8.71311
8.71566
8.73505
8.77772
8.82998
8.8752
8.89817
8.91079
8.99133
9.25624
9.92583
10.7438
11.4727
11.9536
12.1824
12.132
11.7954
11.2338
10.4337
9.54208
8.71977
7.90671
1095.44
1024.94
7.06493
7.85091
8.29197
8.5365
8.67817
8.74713
8.77716
8.77672
8.75763
8.72772
8.70206
8.69601
8.71595
8.75364
8.8172
8.90709
9.00192
9.07071
9.08736
9.06704
9.11903
9.44544
10.1181
10.8548
11.4515
11.8121
11.9034
11.7342
11.2697
10.6249
9.85346
9.02201
8.07336
1095.47
1024.92
7.06048
7.85095
8.29395
8.53692
8.67687
8.744
8.77083
8.76854
8.74684
8.71862
8.69622
8.69212
8.71923
8.77828
8.87327
9.0147
9.18089
9.3291
9.40855
9.38563
9.27434
9.25989
9.55165
10.2257
10.8885
11.3582
11.5776
11.5413
11.2478
10.7311
10.0742
9.29999
8.31687
1095.75
1024.95
7.10071
7.89516
8.31988
8.54696
8.67733
8.73925
8.75681
8.74575
8.71445
8.67783
8.65028
8.64478
8.66795
8.75279
8.89709
9.10523
9.35617
9.60278
9.79512
9.88888
9.85115
9.67283
9.58973
9.80965
10.3675
10.908
11.2394
11.3077
11.1373
10.7328
10.2016
9.5147
8.56558
1096.15
1025.13
7.19629
7.95751
8.35547
8.56618
8.68463
8.732
8.73846
8.71759
8.67633
8.63264
8.60266
8.60236
8.63896
8.75234
8.95948
9.26571
9.62366
9.95648
10.2061
10.3523
10.382
10.2791
10.0466
9.92418
10.1483
10.5372
10.9031
11.0601
10.9861
10.6998
10.2335
9.61867
8.69923
1096.38
1025.32
7.28494
8.0052
8.37578
8.57106
8.66702
8.71381
8.71569
8.68558
8.63318
8.57777
8.53685
8.52953
8.57055
8.70746
8.98444
9.39847
9.85357
10.2428
10.5195
10.6921
10.7948
10.8161
10.7076
10.4832
10.3291
10.5206
10.7194
10.8253
10.7885
10.5786
10.2199
9.68487
8.8224
1096.58
1025.55
7.36581
8.04054
8.38397
8.55729
8.65887
8.70237
8.69919
8.66046
8.6022
8.54127
8.49594
8.48391
8.52785
8.68194
9.01342
9.47274
9.94634
10.3279
10.6113
10.8227
10.9787
11.1005
11.134
11.0329
10.8354
10.6915
10.7373
10.7877
10.7118
10.5089
10.1819
9.68885
8.85816
1096.61
1025.75
7.42844
8.04934
8.36317
8.54032
8.63833
8.67839
8.67245
8.63225
8.5707
8.50578
8.45808
8.44651
8.48726
8.62195
8.92987
9.41177
9.90457
10.2979
10.5934
10.8302
11.0333
11.2082
11.3184
11.324
11.1835
10.9888
10.8776
10.8014
10.6733
10.4585
10.1473
9.68156
8.85058
1096.51
1025.88
7.43846
8.02266
8.34325
8.52021
8.62015
8.66147
8.65796
8.61967
8.56074
8.4968
8.4487
8.43716
8.47258
8.58362
8.81616
9.23226
9.73878
10.1736
10.5205
10.8172
11.0741
11.302
11.4684
11.5214
11.4218
11.2043
10.9964
10.8352
10.672
10.4232
10.1125
9.66367
8.85145
1096.47
1026.07
7.45081
8.0057
8.31298
8.48926
8.59167
8.63434
8.63526
8.60198
8.54457
8.48515
8.42338
8.40232
8.44009
8.56299
8.80219
9.18452
9.6814
10.1355
10.5353
10.8952
11.2193
11.4872
11.6771
11.7492
11.6668
11.4479
11.1793
10.928
10.684
10.4241
10.0994
9.65609
8.86725
1096.52
1026.14
7.40062
7.95204
8.2741
8.46059
8.56957
8.61792
8.62168
8.59238
8.5438
8.48071
8.4124
8.37583
8.38804
8.47913
8.68206
9.02066
9.48164
9.99321
10.4894
10.9441
11.3467
11.6661
11.8848
11.9794
11.934
11.7271
11.4129
11.0757
10.7514
10.4292
10.0975
9.65552
8.87914
1096.57
1026.16
7.34544
7.9072
8.23533
8.42483
8.53735
8.59283
8.60221
8.58222
8.53707
8.46905
8.41186
8.36259
8.34351
8.41171
8.59191
8.91356
9.3551
9.84012
10.3352
10.8491
11.291
11.629
11.875
12.0215
12.0493
11.9284
11.6594
11.2971
10.9041
10.5132
10.1202
9.65284
8.86867
1096.54
1026.06
7.24577
7.83346
8.18301
8.38627
8.50957
8.57486
8.59126
8.57799
8.5347
8.4731
8.40445
8.34971
8.31619
8.30144
8.36675
8.61345
9.03191
9.54044
10.0285
10.5167
10.9729
11.38
11.7188
11.9491
12.012
11.9092
11.6498
11.2901
10.9
10.5094
10.1079
9.59398
8.71915
1095.87
1025.73
7.12257
7.76136
8.13156
8.34418
8.47578
8.55204
8.58011
8.5807
8.54052
8.48758
8.42693
8.36682
8.31868
8.29443
8.2894
8.31102
8.51184
8.99819
9.57413
10.105
10.5778
10.9487
11.2274
11.4342
11.5533
11.5622
11.4092
11.1299
10.7869
10.4113
9.99693
9.44708
8.47335
1095.23
1025.4
7.00701
7.68376
8.07761
8.30431
8.44589
8.53185
8.57436
8.57995
8.55911
8.5205
8.47116
8.41646
8.36139
8.31299
8.28057
8.27898
8.30177
8.36644
8.72893
9.37947
9.98688
10.5057
10.8515
11.0645
11.1912
11.2142
11.1109
10.8978
10.6199
10.2901
9.88761
9.31538
8.34832
1095.06
1025.07
6.8887
7.61043
8.02786
8.26735
8.41769
8.51265
8.56558
8.58267
8.56964
8.53961
8.49963
8.45613
8.41328
8.37193
8.33218
8.29601
8.27974
8.28515
8.31907
8.43705
8.90644
9.59027
10.1921
10.575
10.7624
10.8201
10.7844
10.6521
10.4382
10.1515
9.79498
9.29156
8.35444
1095.15
1024.78
6.80111
7.55615
7.99046
8.24065
8.39842
8.49963
8.55919
8.58491
8.58051
8.55966
8.5276
8.48935
8.45164
8.4196
8.39456
8.37352
8.35075
8.32762
8.3199
8.33771
8.41356
8.65116
9.2567
9.95104
10.4318
10.6518
10.6462
10.5374
10.3413
10.0932
9.77755
9.29716
8.40023
1095.48
1024.5
6.7277
7.50093
7.95258
8.21494
8.38068
8.48819
8.55466
8.59135
8.59326
8.5802
8.55692
8.52431
8.49023
8.45997
8.43788
8.42685
8.42527
8.43272
8.43934
8.43004
8.39628
8.36475
8.40541
8.7616
9.34074
9.9443
10.3514
10.4467
10.3331
10.109
9.79967
9.37418
8.59851
1096.39
1024.47
6.71781
7.49185
7.9461
8.21371
8.38153
8.48631
8.55266
8.58669
8.59947
8.59195
8.57102
8.53943
8.50654
8.47862
8.45996
8.45371
8.46313
8.49506
8.54932
8.62148
8.67328
8.67607
8.59955
8.46639
8.51431
8.84458
9.46012
9.96717
10.1867
10.1083
9.86807
9.4968
8.85755
1097.64
1024.53
6.73084
7.49229
7.93966
8.20531
8.37904
8.48331
8.54938
8.58592
8.60554
8.59954
8.56846
8.53427
8.50082
8.47377
8.45838
8.46055
8.48523
8.53376
8.61295
8.74221
8.95639
9.15562
9.17592
9.03302
8.77314
8.71494
8.87258
9.4064
9.84377
9.97005
9.85767
9.56114
9.0563
1098.44
1024.62
6.77357
7.52033
7.9528
8.20901
8.37405
8.47787
8.53832
8.56582
8.56986
8.56023
8.53915
8.50912
8.47665
8.4469
8.42412
8.41242
8.41798
8.4556
8.55034
8.74031
9.04453
9.37294
9.57706
9.5586
9.35436
8.96103
8.88024
9.10377
9.58658
9.83139
9.8061
9.59552
9.17095
1098.61
1024.74
6.81742
7.53703
7.95746
8.20985
8.36529
8.46793
8.52886
8.55903
8.56663
8.55491
8.52363
8.48353
8.44247
8.40559
8.3766
8.35951
8.35952
8.3846
8.47557
8.68513
9.07196
9.5449
9.90383
10.0351
9.9414
9.55965
9.05214
9.07816
9.37943
9.69091
9.73585
9.59143
9.23052
1098.56
1024.87
6.87258
7.56436
7.96471
8.19979
8.35541
8.4537
8.50804
8.53029
8.53195
8.51735
8.48917
8.45453
8.41842
8.3839
8.35297
8.32806
8.31402
8.32248
8.38612
8.58537
9.00231
9.58053
10.1042
10.4057
10.4398
10.224
9.71601
9.24721
9.3451
9.57023
9.65509
9.56151
9.24057
1098.39
1025.03
6.9067
7.56945
7.95823
8.19352
8.34469
8.43938
8.49203
8.51428
8.51419
8.49564
8.46181
8.42128
8.37966
8.34
8.30402
8.27332
8.25145
8.24795
8.29015
8.47318
8.8968
9.53324
10.1791
10.6412
10.8552
10.8
10.4464
9.86807
9.46121
9.55672
9.60265
9.52486
9.23609
1098.35
1025.17
6.92719
7.57662
7.95646
8.18349
8.32806
8.41727
8.46465
8.48185
8.47682
8.45501
8.4217
8.38379
8.34548
8.30878
8.27426
8.24194
8.21295
8.19489
8.21943
8.38428
8.81381
9.47288
10.1594
10.6916
11.0046
11.0653
10.8606
10.3655
9.81947
9.60125
9.58285
9.48923
9.16378
1097.78
1025.22
6.93152
7.5618
7.9388
8.16508
8.30984
8.39871
8.44533
8.4615
8.45578
8.43308
8.39918
8.36127
8.3233
8.28565
8.25068
8.21719
8.1823
8.14987
8.15399
8.28083
8.68225
9.34679
10.0618
10.6422
10.9881
11.0703
10.9105
10.5166
10.0141
9.7058
9.57102
9.40958
8.96538
1096.92
1025.23
6.91241
7.54331
7.92067
8.14515
8.28747
8.37426
8.41914
8.43367
8.42708
8.40526
8.37412
8.34003
8.30732
8.27966
8.24695
8.21553
8.17937
8.13511
8.09434
8.13629
8.42642
9.02534
9.74322
10.3756
10.7953
10.954
10.8621
10.5257
10.1144
9.78642
9.56955
9.30992
8.74502
1096.35
1025.21
6.88312
7.51624
7.89712
8.12398
8.26782
8.35539
8.4005
8.41463
8.40864
8.38775
8.35898
8.32961
8.29952
8.27161
8.23895
8.19989
8.16459
8.12928
8.09258
8.1015
8.2508
8.66998
9.29382
9.93241
10.408
10.6612
10.6811
10.4884
10.158
9.8532
9.57636
9.23353
8.57258
1096.11
1025.14
6.83369
7.47753
7.86637
8.09695
8.24252
8.3313
8.37763
8.39286
8.38936
8.37239
8.34832
8.32383
8.29812
8.27072
8.24478
8.21848
8.19419
8.15765
8.10826
8.08014
8.14118
8.39681
8.86554
9.44533
9.9621
10.2994
10.4161
10.3397
10.1289
9.85715
9.5755
9.19243
8.48255
1096.09
1025.04
6.78318
7.44193
7.84023
8.07583
8.22398
8.31442
8.36217
8.37882
8.37769
8.36452
8.34533
8.3276
8.30199
8.28715
8.28051
8.27798
8.27074
8.24889
8.20342
8.14168
8.13143
8.24714
8.57596
9.06105
9.54678
9.92677
10.1375
10.1621
10.0355
9.82333
9.55315
9.17652
8.46682
1096.11
1024.9
6.71968
7.39587
7.8051
8.04655
8.19799
8.29079
8.34081
8.3602
8.36263
8.35604
8.34406
8.33209
8.3224
8.31587
8.31294
8.3222
8.33465
8.33956
8.32303
8.26997
8.2009
8.20672
8.39823
8.79585
9.23948
9.61684
9.87158
9.96935
9.92176
9.76002
9.53122
9.17815
8.4738
1096.14
1024.76
6.66945
7.36518
7.78508
8.03116
8.18405
8.27735
8.3274
8.34681
8.3493
8.34647
8.34171
8.34114
8.33759
8.34106
8.3568
8.38638
8.42418
8.46288
8.4878
8.47209
8.38843
8.26278
8.2487
8.49105
8.90821
9.33795
9.67049
9.84173
9.84737
9.74295
9.5396
9.20184
8.55557
1096.63
1024.63
6.62731
7.34008
7.76583
8.01204
8.16426
8.25727
8.30686
8.32515
8.32627
8.32422
8.3206
8.3153
8.31879
8.337
8.37376
8.42719
8.49564
8.58195
8.67017
8.72991
8.7162
8.58814
8.37544
8.30267
8.4395
8.79177
9.22677
9.57661
9.73888
9.7169
9.55183
9.26425
8.72296
1097.44
1024.6
6.62274
7.33625
7.76301
8.01023
8.1564
8.24646
8.29321
8.30782
8.30514
8.30204
8.30395
8.30672
8.3133
8.33585
8.3843
8.44937
8.54042
8.66677
8.82052
8.97251
9.0706
9.05861
8.90682
8.66465
8.50279
8.56118
8.8338
9.22007
9.51705
9.6139
9.53938
9.30711
8.87112
1098.06
1024.63
6.64454
7.35143
7.76492
8.00593
8.14766
8.23108
8.27036
8.2772
8.26618
8.25113
8.24631
8.24973
8.25945
8.28503
8.33334
8.41959
8.55643
8.74652
8.97638
9.21092
9.39336
9.46518
9.41585
9.23836
8.9662
8.73628
8.82596
9.07433
9.36074
9.5246
9.50937
9.34481
8.96684
1098.18
1024.71
6.6933
7.38494
7.78051
8.00933
8.14113
8.21732
8.24891
8.24926
8.22849
8.20264
8.19161
8.19404
8.20376
8.2356
8.29994
8.41513
8.60594
8.88278
9.21424
9.53831
9.78858
9.91957
9.91475
9.79538
9.53095
9.20668
9.01059
9.10067
9.35482
9.49032
9.47483
9.34013
8.97723
1098.06
1024.87
6.76198
7.42197
7.79369
8.0023
8.12916
8.1976
8.21967
8.21038
8.17911
8.14057
8.11486
8.1079
8.1121
8.13616
8.20481
8.34576
8.6165
9.03359
9.49319
9.88762
10.1626
10.2983
10.3054
10.192
9.94317
9.63584
9.40201
9.34228
9.41578
9.49742
9.4657
9.30513
8.91372
1097.63
1025.04
6.82174
7.44113
7.80081
8.00084
8.11923
8.17943
8.19416
8.17804
8.14148
8.09957
8.06571
8.05098
8.0509
8.06463
8.12412
8.28573
8.64406
9.16921
9.73527
10.1704
10.4329
10.5515
10.5544
10.4269
10.1784
9.89624
9.70264
9.60869
9.58616
9.56265
9.474
9.29274
8.85256
1097.38
1025.16
6.8458
7.44189
7.78067
7.97849
8.09454
8.15245
8.16497
8.14544
8.10579
8.0596
8.01941
7.9969
7.99148
8.01342
8.05021
8.173
8.52057
9.11054
9.74543
10.2373
10.5675
10.7624
10.8313
10.7762
10.5756
10.2741
9.99148
9.80366
9.69594
9.60541
9.48672
9.29264
8.85022
1097.5
1025.3
6.84972
7.42255
7.76764
7.96218
8.07381
8.12835
8.13928
8.11914
8.08096
8.03916
8.00493
7.98418
7.98013
7.99491
8.03815
8.1211
8.3197
8.75762
9.37363
9.98619
10.4736
10.8206
11.0518
11.1533
11.0931
10.8517
10.4935
10.1599
9.91264
9.72539
9.54908
9.32342
8.90161
1097.81
1025.33
6.82189
7.39616
7.73697
7.93055
8.04326
8.09999
8.11309
8.09508
8.05858
8.01689
7.98296
7.96776
7.97279
7.9961
8.04166
8.1208
8.28907
8.62496
9.18127
9.78996
10.3428
10.7895
11.1224
11.3348
11.3922
11.2625
10.9571
10.5593
10.2097
9.91926
9.6561
9.36285
8.89754
1097.69
1025.25
6.76717
7.36512
7.71596
7.90839
8.01842
8.07405
8.08712
8.07041
8.03494
7.99483
7.96332
7.95293
7.96705
7.99284
8.03771
8.11438
8.26091
8.574
9.07486
9.65497
10.2764
10.7604
11.0988
11.302
11.3475
11.2319
10.9718
10.6561
10.3185
10.0149
9.71804
9.35037
8.7274
1096.57
1025.03
6.696
7.32237
7.67747
7.87207
7.98587
8.04742
8.06714
8.05617
8.0251
7.98795
7.95861
7.94953
7.9698
8.00204
8.05042
8.11399
8.20284
8.35731
8.67085
9.25959
9.90757
10.4307
10.8143
11.0748
11.1672
11.1208
10.928
10.6546
10.3659
10.059
9.70181
9.23634
8.45396
1095.95
1024.86
6.6694
7.3135
7.66339
7.85305
7.9636
8.02299
8.04234
8.03266
8.00498
7.97217
7.94733
7.94236
7.96598
8.01928
8.10087
8.1936
8.27102
8.33466
8.44621
8.73536
9.30583
9.89701
10.3411
10.6254
10.7688
10.7933
10.7154
10.5614
10.3392
10.0538
9.70396
9.20096
8.37521
1095.93
1024.74
6.66657
7.31229
7.64338
7.82767
7.93746
7.99786
8.01769
8.00922
7.98259
7.95239
7.93319
7.93818
7.97956
8.06625
8.20161
8.38193
8.56043
8.65558
8.62667
8.61872
8.88866
9.3783
9.91248
10.3286
10.5605
10.6226
10.5652
10.4294
10.2423
10.0062
9.69378
9.20435
8.3797
1096.13
1024.75
6.67995
7.31531
7.63842
7.81607
7.92094
7.97667
7.99138
7.97942
7.95032
7.92085
7.90656
7.91901
7.98146
8.08218
8.25477
8.50701
8.80392
9.05761
9.18379
9.16868
9.12036
9.21665
9.42835
9.75914
10.1111
10.3564
10.4397
10.3879
10.2292
10.0136
9.70539
9.24826
8.47046
1096.82
1025.03
6.80859
7.34564
7.63645
7.80166
7.90155
7.95315
7.96334
7.94534
7.91086
7.87969
7.87075
7.8952
7.97688
8.10271
8.33974
8.70271
9.09449
9.38627
9.547
9.60577
9.59251
9.5321
9.54196
9.68762
9.83676
10.025
10.1853
10.2536
10.204
10.0287
9.75986
9.36317
8.70678
1097.72
1025.17
6.82219
7.321
7.60055
7.76744
7.87102
7.92448
7.9351
7.91568
7.88144
7.8535
7.85173
7.88895
7.97631
8.12254
8.37816
8.76555
9.19612
9.54236
9.7892
9.95308
10.0478
10.0736
10.0355
9.93326
9.89619
9.9847
10.0428
10.1117
10.1126
10.0068
9.79182
9.45876
8.91252
1098.23
1025.45
6.86565
7.29618
7.56304
7.73199
7.8395
7.89594
7.90839
7.88961
7.85465
7.82531
7.82699
7.87919
7.99356
8.15797
8.37952
8.73482
9.15007
9.5403
9.8699
10.1325
10.3257
10.4543
10.5042
10.4561
10.3207
10.1452
10.0734
10.0999
10.0899
10.0008
9.81072
9.5315
9.07514
1098.47
1025.83
6.86892
7.24114
7.51181
7.68963
7.80399
7.86475
7.87926
7.86332
7.82862
7.79707
7.79733
7.85551
7.9856
8.19067
8.44517
8.73692
9.11322
9.50615
9.88397
10.2282
10.516
10.7461
10.916
10.9887
10.9233
10.7164
10.453
10.2364
10.1139
10.0046
9.83824
9.60496
9.15799
1098.48
1025.97
6.77785
7.15674
7.44572
7.63627
7.76093
7.83189
7.85477
7.84905
7.82047
7.77671
7.75443
7.79764
7.93226
8.16812
8.47193
8.77806
9.08071
9.43515
9.82673
10.1979
10.5192
10.7963
11.0235
11.1608
11.1699
11.023
10.7702
10.5065
10.2769
10.0843
9.87266
9.60532
9.14257
1097.73
1025.97
6.67287
7.07231
7.38077
7.58181
7.71523
7.7955
7.82543
7.82656
7.80638
7.77029
7.73079
7.71611
7.80904
8.03528
8.39766
8.81734
9.18723
9.50587
9.83332
10.1817
10.4911
10.7623
10.9824
11.0963
11.1029
10.9723
10.7516
10.5106
10.2996
10.0859
9.85088
9.50578
8.75802
1096.06
1025.65
6.49125
6.94514
7.28493
7.50563
7.65557
7.75253
7.80304
7.81084
7.7974
7.75634
7.71566
7.68839
7.67533
7.71961
7.94443
8.35338
8.88421
9.35025
9.70243
10.0034
10.247
10.446
10.6069
10.7025
10.7162
10.6549
10.5432
10.4165
10.2482
10.0222
9.72069
9.25949
8.32081
1095.05
1025.18
6.3275
6.82926
7.19237
7.42956
7.59432
7.70848
7.77959
7.80972
7.80454
7.76958
7.73036
7.69215
7.67704
7.6693
7.67216
7.74662
8.01541
8.58124
9.1929
9.61905
9.95185
10.1711
10.3175
10.4125
10.4428
10.419
10.3403
10.2262
10.0704
9.86068
9.57027
9.08291
8.14992
1094.89
1024.78
6.16438
6.70178
7.09181
7.35149
7.53472
7.66673
7.75602
7.80464
7.80739
7.79598
7.77265
7.74341
7.71072
7.68749
7.68873
7.70628
7.74576
7.82041
8.08165
8.63032
9.21691
9.6603
9.94211
10.1059
10.189
10.2111
10.1783
10.0899
9.94871
9.7458
9.46191
9.01075
8.13579
1095.02
1024.45
6.03126
6.60226
7.01017
7.28699
7.48617
7.6334
7.73591
7.79753
7.80974
7.80602
7.79287
7.77851
7.76557
7.75734
7.74905
7.74375
7.74419
7.76489
7.81634
7.92971
8.19675
8.72153
9.27784
9.65566
9.87937
9.97383
9.97112
9.91889
9.8059
9.6387
9.40295
9.00046
8.16044
1095.3
1024.07
5.89927
6.50926
6.9422
7.2355
7.44662
7.60599
7.7208
7.79549
7.82203
7.82628
7.82056
7.81384
7.80064
7.80508
7.82583
7.8529
7.87708
7.88683
7.88561
7.88554
7.92527
8.06711
8.40992
8.9259
9.38276
9.70992
9.87786
9.87914
9.79862
9.64322
9.4075
9.0205
8.27163
1095.89
1023.91
5.87708
6.49383
6.91356
7.20802
7.43175
7.59672
7.71394
7.78907
7.83188
7.84493
7.8461
7.8442
7.84397
7.86156
7.89948
7.94112
7.99556
8.05258
8.12449
8.17677
8.16792
8.09868
7.99387
8.03993
8.3119
8.74624
9.21163
9.57261
9.72686
9.64218
9.43896
9.08959
8.48627
1097.1
1023.9
5.87186
6.48932
6.91625
7.20883
7.42155
7.58601
7.70693
7.78995
7.82237
7.84945
7.85198
7.84191
7.8499
7.88263
7.94677
8.03076
8.13736
8.2785
8.44636
8.61792
8.74976
8.76538
8.67028
8.40364
8.25784
8.26381
8.44176
8.76457
9.16534
9.47545
9.43009
9.21354
8.77581
1098.64
1023.96
5.95871
6.5635
6.95279
7.22651
7.43764
7.59848
7.71729
7.79314
7.81894
7.82167
7.81913
7.81652
7.8192
7.85079
7.94141
8.0604
8.2317
8.45647
8.72257
9.00597
9.27812
9.4977
9.59875
9.56672
9.33545
8.90944
8.47608
8.52448
8.65022
8.94471
9.19808
9.18428
9.03702
1100.18
1024.19
6.08801
6.64209
7.00488
7.26943
7.47812
7.63104
7.73774
7.79919
7.81512
7.81748
7.81364
7.80696
7.81013
7.83979
7.94197
8.1225
8.40248
8.76544
9.16188
9.55437
9.91733
10.2128
10.4189
10.5308
10.5116
10.3631
9.96449
9.28943
8.75729
8.84377
9.03259
9.17326
9.20087
1100.49
1024.56
6.23731
6.71833
7.04361
7.29298
7.49314
7.64187
7.73967
7.79388
7.80985
7.79558
7.78625
7.78418
7.79452
7.84185
7.95567
8.24888
8.72305
9.25941
9.72933
10.1037
10.4115
10.6844
10.9276
11.1189
11.2186
11.1944
10.9795
10.487
9.70829
9.07315
9.0773
9.20535
9.24744
1100.09
1024.81
6.30318
6.73097
7.0532
7.30521
7.49264
7.63422
7.74124
7.79547
7.80902
7.787
7.77019
7.76599
7.7886
7.84865
7.98879
8.30351
8.81031
9.36249
9.81572
10.2057
10.5512
10.8581
11.1356
11.3694
11.5105
11.496
11.2486
10.7251
9.94375
9.2937
9.17851
9.20761
9.09924
1097.89
1024.87
6.31143
6.71186
7.01878
7.26907
7.47004
7.61861
7.71844
7.77088
7.78754
7.77597
7.76508
7.7722
7.79601
7.84604
7.95999
8.1712
8.54257
9.03935
9.5907
10.0745
10.4671
10.8018
11.1001
11.347
11.4911
11.495
11.2622
10.7603
10.0847
9.51088
9.27632
9.1525
8.84778
1097.08
1025.11
6.33215
6.70636
7.01496
7.2675
7.46496
7.61402
7.71529
7.76813
7.78635
7.77202
7.75881
7.76499
7.81295
7.90415
8.05478
8.24655
8.55133
9.0059
9.51659
9.9764
10.3655
10.7082
11.0232
11.2959
11.4784
11.5127
11.3117
10.8702
10.2455
9.68576
9.35871
9.13047
8.69095
1096.99
1025.15
6.28265
6.6515
6.96299
7.21868
7.42604
7.58553
7.6971
7.76781
7.77878
7.77524
7.76529
7.77078
7.81943
7.92386
8.09777
8.33767
8.60999
8.95305