/*--------------------------------*- C++ -*----------------------------------*\
| =========                 |                                                 |
| \\      /  F ield         | OpenFOAM: The Open Source CFD Toolbox           |
|  \\    /   O peration     | Version:  2.0.x                                 |
|   \\  /    A nd           | Web:      www.OpenFOAM.org                      |
|    \\/     M anipulation  |                                                 |
\*---------------------------------------------------------------------------*/
FoamFile
{
    version     2.0;
    format      ascii;
    class       surfaceScalarField;
    location    "250";
    object      phi;
}
// * * * * * * * * * * * * * * * * * * * * * * * * * * * * * * * * * * * * * //

dimensions      [1 0 -1 0 0 0 0];

internalField   nonuniform List<scalar> 
228225
(
-1.39769e-06
5.60731e-07
3.50634e-07
-2.40212e-06
3.00397e-07
7.03906e-07
-2.60403e-06
-6.29407e-07
8.31165e-07
-1.62154e-06
-1.84517e-06
8.6251e-07
5.8343e-07
-3.06285e-06
8.577e-07
3.84011e-06
-4.09271e-06
8.35841e-07
7.99938e-06
-4.97979e-06
8.2032e-07
1.27158e-05
-5.5253e-06
8.08675e-07
1.77753e-05
-5.85257e-06
7.92894e-07
2.28082e-05
-5.78291e-06
7.49888e-07
2.79565e-05
-5.86892e-06
7.20569e-07
3.28277e-05
-5.57576e-06
7.04485e-07
3.72843e-05
-5.14983e-06
6.93128e-07
4.12385e-05
-4.6378e-06
6.83468e-07
4.46415e-05
-4.07772e-06
6.74613e-07
4.74596e-05
-3.4809e-06
6.62799e-07
4.97155e-05
-2.9123e-06
6.56224e-07
5.13583e-05
-2.29082e-06
6.4791e-07
5.24928e-05
-1.77282e-06
6.382e-07
5.29326e-05
-1.07187e-06
6.31959e-07
5.29212e-05
-6.08066e-07
6.19317e-07
5.23471e-05
-3.42826e-08
6.08236e-07
5.12231e-05
5.26842e-07
5.9708e-07
4.95954e-05
1.04057e-06
5.86927e-07
4.73048e-05
1.71385e-06
5.76596e-07
4.45507e-05
2.18507e-06
5.68797e-07
4.12677e-05
2.72215e-06
5.60627e-07
3.75605e-05
3.14797e-06
5.59063e-07
3.33526e-05
3.64687e-06
5.60766e-07
2.86804e-05
4.10559e-06
5.66242e-07
2.35758e-05
4.52828e-06
5.75959e-07
1.8072e-05
4.91138e-06
5.91908e-07
1.21439e-05
5.3085e-06
6.18761e-07
5.68244e-06
5.85795e-06
6.02465e-07
5.3494e-06
3.33004e-07
6.95134e-07
-3.747e-07
2.39888e-07
2.9996e-06
-2.47939e-06
4.74773e-07
6.77264e-06
-4.95003e-06
5.46982e-07
1.15139e-05
-7.14138e-06
5.5439e-07
1.66385e-05
-8.73676e-06
5.48942e-07
2.16696e-05
-9.65074e-06
5.26502e-07
2.63429e-05
-1.01684e-05
5.15096e-07
3.05802e-05
-1.02735e-05
5.10634e-07
3.43288e-05
-1.01226e-05
5.21239e-07
3.76318e-05
-9.62335e-06
5.3729e-07
4.02037e-05
-8.99338e-06
5.52382e-07
4.22391e-05
-8.17285e-06
5.61409e-07
4.38088e-05
-7.28507e-06
5.65385e-07
4.49672e-05
-6.36152e-06
5.65023e-07
4.57428e-05
-5.41463e-06
5.61157e-07
4.61719e-05
-4.46577e-06
5.555e-07
4.62513e-05
-3.53576e-06
5.43863e-07
4.60803e-05
-2.6511e-06
5.30998e-07
4.55753e-05
-1.78476e-06
5.16749e-07
4.48951e-05
-8.94502e-07
5.02569e-07
4.37376e-05
6.05554e-08
4.88636e-07
4.2437e-05
7.87394e-07
4.7864e-07
4.0852e-05
1.64252e-06
4.68923e-07
3.89437e-05
2.48612e-06
4.62471e-07
3.67063e-05
3.49146e-06
4.59426e-07
3.41735e-05
4.26207e-06
4.5556e-07
3.14931e-05
4.95135e-06
4.50945e-07
2.84607e-05
5.72137e-06
4.58621e-07
2.50575e-05
6.57706e-06
4.72446e-07
2.13043e-05
7.36555e-06
4.92664e-07
1.7226e-05
8.08494e-06
5.2094e-07
1.27951e-05
8.788e-06
5.53566e-07
7.98953e-06
9.53302e-06
5.80149e-07
3.18252e-06
1.01296e-05
5.3431e-07
8.23307e-06
2.98815e-07
1.37709e-06
-1.92003e-06
1.6769e-07
4.914e-06
-6.32088e-06
3.04016e-07
9.33325e-06
-9.72267e-06
3.52925e-07
1.34832e-05
-1.1677e-05
3.85282e-07
1.69123e-05
-1.25934e-05
4.27253e-07
1.95853e-05
-1.27836e-05
4.5976e-07
2.14996e-05
-1.25698e-05
4.86855e-07
2.28314e-05
-1.21148e-05
5.09229e-07
2.36279e-05
-1.14437e-05
5.24334e-07
2.40158e-05
-1.05451e-05
5.33604e-07
2.41004e-05
-9.61545e-06
5.37332e-07
2.40104e-05
-8.61611e-06
5.32971e-07
2.37218e-05
-7.51986e-06
5.23207e-07
2.31998e-05
-6.34879e-06
5.08996e-07
2.2475e-05
-5.18033e-06
4.90278e-07
2.16212e-05
-4.07973e-06
4.67499e-07
2.07368e-05
-3.09342e-06
4.41671e-07
1.98963e-05
-2.22453e-06
4.13609e-07
1.91629e-05
-1.43666e-06
3.8497e-07
1.85448e-05
-6.33687e-07
3.56964e-07
1.79628e-05
3.12131e-07
3.30156e-07
1.74486e-05
9.90963e-07
3.10298e-07
1.69018e-05
1.89456e-06
2.94322e-07
1.61862e-05
2.91383e-06
2.87457e-07
1.53989e-05
3.98992e-06
2.88344e-07
1.43568e-05
5.00973e-06
2.94051e-07
1.31346e-05
5.86755e-06
3.05476e-07
1.17409e-05
6.80433e-06
3.10226e-07
1.02786e-05
7.71557e-06
3.23132e-07
8.70054e-06
8.59889e-06
3.4408e-07
6.89207e-06
9.51501e-06
3.77765e-07
4.77657e-06
1.04805e-05
4.22394e-07
2.44976e-06
1.14088e-05
4.5027e-07
4.64294e-07
1.17181e-05
3.95993e-07
8.52735e-06
1.7e-07
1.391e-06
-3.44055e-06
1.28855e-07
3.82662e-06
-9.00264e-06
2.45619e-07
5.98676e-06
-1.22028e-05
3.19593e-07
7.45253e-06
-1.35257e-05
3.8262e-07
8.33043e-06
-1.38831e-05
4.11624e-07
8.94216e-06
-1.38295e-05
4.33862e-07
9.42906e-06
-1.35093e-05
4.52445e-07
9.81218e-06
-1.29561e-05
4.57996e-07
1.01034e-05
-1.21911e-05
4.56058e-07
1.02967e-05
-1.11951e-05
4.56502e-07
1.02317e-05
-1.00101e-05
4.59356e-07
9.84674e-06
-8.69242e-06
4.60957e-07
9.19774e-06
-7.32561e-06
4.5447e-07
8.36927e-06
-5.9603e-06
4.39679e-07
7.43224e-06
-4.66075e-06
4.17111e-07
6.45552e-06
-3.49006e-06
3.86704e-07
5.52888e-06
-2.51744e-06
3.50314e-07
4.7506e-06
-1.75995e-06
3.1334e-07
4.18067e-06
-1.14692e-06
2.7985e-07
3.86603e-06
-5.7084e-07
2.51438e-07
3.87486e-06
7.56328e-08
2.27304e-07
3.87829e-06
7.78156e-07
2.08945e-07
3.8928e-06
1.68421e-06
1.95344e-07
3.90489e-06
2.71098e-06
1.90287e-07
3.92312e-06
3.77631e-06
1.94903e-07
3.91295e-06
4.8106e-06
2.08846e-07
3.74759e-06
5.79838e-06
2.34123e-07
3.52619e-06
6.76908e-06
2.56245e-07
3.24141e-06
7.7217e-06
2.78274e-07
2.84329e-06
8.69485e-06
3.01743e-07
2.27084e-06
9.76222e-06
3.24804e-07
1.46552e-06
1.09414e-05
3.43957e-07
5.6882e-07
1.19537e-05
3.51277e-07
-8.72196e-08
1.20791e-05
2.94462e-07
8.31785e-06
1.22258e-07
8.2106e-07
-4.35851e-06
9.63292e-08
1.88579e-06
-1.02725e-05
2.04757e-07
2.65452e-06
-1.32474e-05
2.75589e-07
3.19768e-06
-1.43944e-05
3.25299e-07
3.66281e-06
-1.4711e-05
3.62571e-07
4.0565e-06
-1.46147e-05
3.91392e-07
4.34395e-06
-1.42089e-05
4.11901e-07
4.49965e-06
-1.35409e-05
4.28872e-07
4.5069e-06
-1.2642e-05
4.43374e-07
4.40752e-06
-1.15493e-05
4.53335e-07
4.23912e-06
-1.02977e-05
4.55833e-07
4.009e-06
-8.91625e-06
4.53656e-07
3.72148e-06
-7.48844e-06
4.5001e-07
3.37336e-06
-6.05379e-06
4.41242e-07
2.96941e-06
-4.68246e-06
4.25283e-07
2.51928e-06
-3.44238e-06
4.02076e-07
2.01561e-06
-2.38686e-06
3.72717e-07
1.46908e-06
-1.55419e-06
3.40404e-07
9.22722e-07
-9.09879e-07
3.08931e-07
4.35752e-07
-3.64072e-07
2.79783e-07
7.62744e-08
1.80985e-07
2.53659e-07
-1.78555e-07
8.01802e-07
2.30682e-07
-2.53011e-07
1.54575e-06
2.12403e-07
-1.49073e-07
2.40709e-06
1.99449e-07
9.09787e-08
3.34331e-06
1.9247e-07
4.00659e-07
4.30858e-06
1.9189e-07
7.16694e-07
5.28421e-06
1.97698e-07
1.00075e-06
6.27655e-06
2.08054e-07
1.19415e-06
7.30571e-06
2.22173e-07
1.22219e-06
8.42714e-06
2.39192e-07
1.01547e-06
9.71291e-06
2.55559e-07
5.61509e-07
1.112e-05
2.75077e-07
5.16691e-08
1.21874e-05
2.75725e-07
-2.53566e-07
1.21625e-05
2.21156e-07
7.98208e-06
8.21892e-08
3.86749e-07
-4.82941e-06
8.37233e-08
8.5671e-07
-1.09373e-05
1.94475e-07
1.22136e-06
-1.38825e-05
2.70244e-07
1.45038e-06
-1.49457e-05
3.22094e-07
1.57866e-06
-1.51938e-05
3.54321e-07
1.63904e-06
-1.50522e-05
3.76903e-07
1.6589e-06
-1.46237e-05
3.94832e-07
1.65044e-06
-1.39429e-05
4.10352e-07
1.61451e-06
-1.30308e-05
4.24511e-07
1.54959e-06
-1.1922e-05
4.37431e-07
1.4717e-06
-1.06685e-05
4.48379e-07
1.41706e-06
-9.31703e-06
4.55164e-07
1.37416e-06
-7.90184e-06
4.56027e-07
1.337e-06
-6.46695e-06
4.5002e-07
1.28122e-06
-5.0632e-06
4.36188e-07
1.16894e-06
-3.74474e-06
4.14277e-07
9.4535e-07
-2.54982e-06
3.86171e-07
5.68131e-07
-1.53161e-06
3.54257e-07
5.45116e-08
-7.19263e-07
3.2262e-07
-5.28788e-07
-7.70104e-08
2.95849e-07
-1.05258e-06
4.29237e-07
2.75145e-07
-1.41175e-06
9.00639e-07
2.5992e-07
-1.52104e-06
1.40568e-06
2.48941e-07
-1.35536e-06
2.00063e-06
2.40344e-07
-9.60461e-07
2.71458e-06
2.33392e-07
-4.28705e-07
3.54907e-06
2.27326e-07
1.41578e-07
4.49145e-06
2.22064e-07
6.6211e-07
5.53756e-06
2.18045e-07
1.04505e-06
6.70599e-06
2.1635e-07
1.2073e-06
8.04575e-06
2.18766e-07
1.08626e-06
9.6075e-06
2.26098e-07
7.21168e-07
1.12601e-05
2.24605e-07
2.86226e-07
1.24077e-05
2.14223e-07
-2.14257e-08
1.23053e-05
1.64385e-07
7.90439e-06
5.62423e-08
1.65953e-07
-5.07078e-06
7.50678e-08
3.37388e-07
-1.1289e-05
1.80052e-07
4.43181e-07
-1.42391e-05
2.50556e-07
5.07041e-07
-1.53125e-05
3.02843e-07
5.48695e-07
-1.55773e-05
3.41719e-07
5.69897e-07
-1.54433e-05
3.69819e-07
5.75178e-07
-1.50206e-05
3.91437e-07
5.70685e-07
-1.43485e-05
4.09935e-07
5.68309e-07
-1.34554e-05
4.26815e-07
5.77917e-07
-1.23737e-05
4.41916e-07
5.98993e-07
-1.11445e-05
4.54753e-07
6.33759e-07
-9.81676e-06
4.64758e-07
7.01159e-07
-8.44066e-06
4.71184e-07
8.15089e-07
-7.05399e-06
4.72848e-07
9.66285e-07
-5.68286e-06
4.68174e-07
1.11613e-06
-4.35032e-06
4.55423e-07
1.21887e-06
-3.08639e-06
4.33491e-07
1.21489e-06
-1.931e-06
4.0301e-07
1.05522e-06
-9.26929e-07
3.66965e-07
7.26269e-07
-7.92595e-08
3.30846e-07
3.27979e-07
5.27033e-07
3.00148e-07
-7.48911e-08
1.02797e-06
2.7519e-07
-3.84105e-07
1.45698e-06
2.57559e-07
-5.11935e-07
1.88172e-06
2.4637e-07
-4.03812e-07
2.36741e-06
2.38665e-07
-7.30746e-08
2.98399e-06
2.33952e-07
4.00855e-07
3.78567e-06
2.31448e-07
9.0052e-07
4.80833e-06
2.29161e-07
1.29575e-06
6.08438e-06
2.2598e-07
1.46782e-06
7.65181e-06
2.21477e-07
1.34266e-06
9.51818e-06
2.14132e-07
9.62828e-07
1.14397e-05
1.99944e-07
4.99609e-07
1.2694e-05
1.7648e-07
1.26053e-07
1.25497e-05
1.28669e-07
7.98258e-06
4.78478e-08
4.1462e-08
-5.18778e-06
7.52426e-08
6.69687e-08
-1.14928e-05
1.78148e-07
6.4361e-08
-1.44796e-05
2.43017e-07
3.34691e-08
-1.55729e-05
2.91176e-07
-1.80356e-08
-1.58547e-05
3.28779e-07
-7.88045e-08
-1.57411e-05
3.58503e-07
-1.36399e-07
-1.53463e-05
3.83242e-07
-1.78748e-07
-1.47122e-05
4.05916e-07
-1.93859e-07
-1.38679e-05
4.27519e-07
-1.68917e-07
-1.28468e-05
4.47935e-07
-9.29133e-08
-1.16874e-05
4.66766e-07
3.67196e-08
-1.04297e-05
4.83129e-07
2.13098e-07
-9.11316e-06
4.95908e-07
4.3087e-07
-7.77606e-06
5.04068e-07
6.91189e-07
-6.4501e-06
5.06662e-07
9.9536e-07
-5.15741e-06
5.02628e-07
1.33163e-06
-3.91369e-06
4.90715e-07
1.66488e-06
-2.7346e-06
4.7e-07
1.93658e-06
-1.63952e-06
4.40514e-07
2.09038e-06
-6.38349e-07
4.04932e-07
2.04568e-06
2.00956e-07
3.70405e-07
1.88429e-06
8.53811e-07
3.35185e-07
1.61781e-06
1.4221e-06
3.01004e-07
1.34352e-06
1.88411e-06
2.71534e-07
1.13976e-06
2.31895e-06
2.51808e-07
1.0747e-06
2.80995e-06
2.38648e-07
1.17748e-06
3.45355e-06
2.28874e-07
1.40554e-06
4.35625e-06
2.2352e-07
1.64475e-06
5.62458e-06
2.20076e-07
1.74021e-06
7.33885e-06
2.16981e-07
1.58671e-06
9.46261e-06
2.08607e-07
1.22045e-06
1.16126e-05
1.93026e-07
7.20074e-07
1.30277e-05
1.66321e-07
2.49715e-07
1.28995e-05
1.19862e-07
8.1835e-06
4.87764e-08
9.07016e-09
-5.27201e-06
7.48863e-08
1.43695e-09
-1.16568e-05
1.71416e-07
-6.64285e-09
-1.47015e-05
2.29785e-07
-1.17176e-08
-1.58408e-05
2.72816e-07
-2.22681e-08
-1.61546e-05
3.10363e-07
-3.37507e-08
-1.60711e-05
3.41356e-07
-3.85564e-08
-1.57091e-05
3.67463e-07
-2.91816e-08
-1.51133e-05
3.91554e-07
7.02459e-10
-1.43133e-05
4.1542e-07
5.64354e-08
-1.33416e-05
4.38965e-07
1.43227e-07
-1.22361e-05
4.61717e-07
2.67338e-07
-1.10372e-05
4.83204e-07
4.34169e-07
-9.78288e-06
5.02707e-07
6.45717e-07
-8.50708e-06
5.19273e-07
9.01463e-07
-7.23785e-06
5.31792e-07
1.20093e-06
-5.99619e-06
5.39073e-07
1.54396e-06
-4.7968e-06
5.39832e-07
1.92581e-06
-3.64943e-06
5.32696e-07
2.3315e-06
-2.56134e-06
5.15806e-07
2.74266e-06
-1.53782e-06
4.87981e-07
3.05946e-06
-5.67367e-07
4.51203e-07
3.23149e-06
2.66605e-07
4.14853e-07
3.30213e-06
9.75526e-07
3.75593e-07
3.21143e-06
1.63577e-06
3.38707e-07
3.0193e-06
2.21059e-06
3.0015e-07
2.80763e-06
2.75468e-06
2.66577e-07
2.64826e-06
3.37275e-06
2.39786e-07
2.56686e-06
4.21456e-06
2.22671e-07
2.52166e-06
5.457e-06
2.12318e-07
2.42048e-06
7.23446e-06
2.05048e-07
2.18089e-06
9.50242e-06
1.99346e-07
1.66854e-06
1.19348e-05
1.89776e-07
9.75496e-07
1.35547e-05
1.6566e-07
3.23485e-07
1.34308e-05
1.20204e-07
8.45381e-06
5.31581e-08
-1.95276e-08
-5.33132e-06
7.85874e-08
-7.19765e-08
-1.17764e-05
1.71847e-07
-1.20561e-07
-1.48702e-05
2.17174e-07
-1.65238e-07
-1.60517e-05
2.55476e-07
-2.15805e-07
-1.63967e-05
2.92564e-07
-2.66777e-07
-1.63444e-05
3.24195e-07
-3.09459e-07
-1.60182e-05
3.51714e-07
-3.34296e-07
-1.54666e-05
3.78075e-07
-3.31096e-07
-1.47211e-05
4.04409e-07
-2.90453e-07
-1.38127e-05
4.30324e-07
-2.06237e-07
-1.27758e-05
4.55373e-07
-7.66513e-08
-1.16463e-05
4.7936e-07
9.70767e-08
-1.04586e-05
5.01861e-07
3.11943e-07
-9.24442e-06
5.22303e-07
5.65419e-07
-8.0316e-06
5.40087e-07
8.56113e-07
-6.84165e-06
5.54564e-07
1.18352e-06
-5.68939e-06
5.64962e-07
1.54734e-06
-4.58372e-06
5.70234e-07
1.94656e-06
-3.52917e-06
5.68344e-07
2.37882e-06
-2.5284e-06
5.5803e-07
2.85642e-06
-1.58185e-06
5.36575e-07
3.28208e-06
-6.64492e-07
5.05128e-07
3.61919e-06
1.67779e-07
4.7031e-07
3.87076e-06
9.58032e-07
4.25832e-07
3.98126e-06
1.71846e-06
3.81299e-07
3.93406e-06
2.46741e-06
3.34114e-07
3.78032e-06
3.23693e-06
2.89151e-07
3.56309e-06
4.18243e-06
2.48872e-07
3.29758e-06
5.50854e-06
2.13464e-07
2.94417e-06
7.40361e-06
1.83866e-07
2.39392e-06
9.8902e-06
1.62128e-07
1.61489e-06
1.25689e-05
1.44643e-07
8.29377e-07
1.42142e-05
1.25688e-07
2.05459e-07
1.39631e-05
9.1113e-08
8.61788e-06
4.13722e-08
-6.14326e-08
-5.35056e-06
8.04226e-08
-1.55699e-07
-1.18464e-05
1.64096e-07
-2.20589e-07
-1.50123e-05
2.06827e-07
-2.51613e-07
-1.6258e-05
2.37229e-07
-2.68398e-07
-1.66482e-05
2.68197e-07
-2.78798e-07
-1.66351e-05
3.00946e-07
-2.77806e-07
-1.63506e-05
3.31262e-07
-2.5807e-07
-1.58461e-05
3.59698e-07
-2.13227e-07
-1.51536e-05
3.87621e-07
-1.38763e-07
-1.43028e-05
4.15502e-07
-3.20388e-08
-1.33261e-05
4.43391e-07
1.08295e-07
-1.22576e-05
4.70871e-07
2.82107e-07
-1.11301e-05
4.97486e-07
4.87059e-07
-9.97223e-06
5.22686e-07
7.19251e-07
-8.80988e-06
5.45902e-07
9.75349e-07
-7.66453e-06
5.6659e-07
1.25321e-06
-6.5517e-06
5.84243e-07
1.55131e-06
-5.48037e-06
5.98329e-07
1.8672e-06
-4.45345e-06
6.08143e-07
2.1966e-06
-3.46975e-06
6.11702e-07
2.53431e-06
-2.52736e-06
6.07511e-07
2.89771e-06
-1.62145e-06
5.93263e-07
3.20457e-06
-7.08676e-07
5.69307e-07
3.45363e-06
1.69155e-07
5.395e-07
3.658e-06
1.01454e-06
4.99201e-07
3.68509e-06
1.98803e-06
4.51902e-07
3.51788e-06
3.00737e-06
3.96319e-07
3.2181e-06
4.14651e-06
3.3527e-07
2.80425e-06
5.65345e-06
2.68557e-07
2.25412e-06
7.74355e-06
2.09812e-07
1.57518e-06
1.04105e-05
1.58292e-07
9.11688e-07
1.31158e-05
1.16317e-07
3.9926e-07
1.46418e-05
8.44902e-08
5.69828e-08
1.42498e-05
5.51664e-08
8.64751e-06
2.73515e-08
-7.16406e-08
-5.35899e-06
7.9814e-08
-1.76665e-07
-1.18898e-05
1.48271e-07
-2.25605e-07
-1.51367e-05
1.73168e-07
-2.2936e-07
-1.64527e-05
1.9829e-07
-2.17122e-07
-1.68923e-05
2.31719e-07
-2.01172e-07
-1.69171e-05
2.65963e-07
-1.78704e-07
-1.66709e-05
2.97748e-07
-1.44608e-07
-1.62084e-05
3.28039e-07
-9.41639e-08
-1.55627e-05
3.5851e-07
-2.27503e-08
-1.4763e-05
3.88714e-07
7.29215e-08
-1.38403e-05
4.18417e-07
1.9451e-07
-1.28268e-05
4.47489e-07
3.42363e-07
-1.17539e-05
4.75811e-07
5.15489e-07
-1.06487e-05
5.03173e-07
7.10628e-07
-9.53441e-06
5.29251e-07
9.23481e-07
-8.43123e-06
5.53705e-07
1.15025e-06
-7.35484e-06
5.76229e-07
1.38844e-06
-6.31527e-06
5.9656e-07
1.63647e-06
-5.31596e-06
6.14336e-07
1.89251e-06
-4.35393e-06
6.27999e-07
2.15012e-06
-3.42187e-06
6.36741e-07
2.40068e-06
-2.51118e-06
6.39018e-07
2.66839e-06
-1.60912e-06
6.32585e-07
2.88037e-06
-6.59515e-07
6.16527e-07
2.99466e-06
3.0656e-07
5.9352e-07
3.10824e-06
1.31805e-06
5.56233e-07
3.04726e-06
2.55735e-06
5.10847e-07
2.77103e-06
3.967e-06
4.55575e-07
2.36151e-06
5.66899e-06
3.93805e-07
1.90329e-06
7.87864e-06
3.22993e-07
1.48711e-06
1.05791e-05
2.47488e-07
1.10926e-06
1.33109e-05
1.82719e-07
6.72388e-07
1.49512e-05
1.27438e-07
2.50649e-07
1.45882e-05
8.31962e-08
8.85536e-06
4.27888e-08
-8.89098e-08
-5.34792e-06
7.75343e-08
-1.89502e-07
-1.19184e-05
1.28968e-07
-2.16038e-07
-1.52487e-05
1.38357e-07
-1.85151e-07
-1.66448e-05
1.61046e-07
-1.27969e-07
-1.71418e-05
1.9224e-07
-6.31803e-08
-1.72095e-05
2.27445e-07
7.98597e-09
-1.70036e-05
2.61369e-07
8.83672e-08
-1.65828e-05
2.93951e-07
1.81836e-07
-1.5982e-05
3.25711e-07
2.91206e-07
-1.52302e-05
3.57645e-07
4.18789e-07
-1.43574e-05
3.89374e-07
5.66119e-07
-1.33949e-05
4.20607e-07
7.34034e-07
-1.23731e-05
4.51148e-07
9.2272e-07
-1.13183e-05
4.80815e-07
1.13105e-06
-1.02523e-05
5.09364e-07
1.356e-06
-9.19288e-06
5.36519e-07
1.59396e-06
-8.155e-06
5.62008e-07
1.84186e-06
-7.14897e-06
5.85609e-07
2.09818e-06
-6.17972e-06
6.07233e-07
2.36292e-06
-5.24565e-06
6.26758e-07
2.63665e-06
-4.33867e-06
6.42846e-07
2.91546e-06
-3.44507e-06
6.54837e-07
3.19096e-06
-2.54683e-06
6.61946e-07
3.48827e-06
-1.6177e-06
6.60598e-07
3.72262e-06
-5.76892e-07
6.48799e-07
3.86625e-06
5.45132e-07
6.28945e-07
4.01247e-06
1.82069e-06
5.90072e-07
3.93203e-06
3.51587e-06
5.31247e-07
3.66041e-06
5.48058e-06
4.59719e-07
3.27084e-06
7.88065e-06
3.87248e-07
2.764e-06
1.07658e-05
3.19831e-07
2.06451e-06
1.37523e-05
2.57901e-07
1.22189e-06
1.55916e-05
2.01979e-07
4.31583e-07
1.52311e-05
1.47144e-07
9.20871e-06
7.82219e-08
-8.74313e-08
-5.33246e-06
7.15521e-08
-2.02942e-07
-1.1907e-05
1.03816e-07
-2.45586e-07
-1.5311e-05
1.04762e-07
-1.91575e-07
-1.68109e-05
1.12004e-07
-9.9819e-08
-1.73749e-05
1.41184e-07
3.42224e-09
-1.74908e-05
1.78005e-07
1.13844e-07
-1.73282e-05
2.141e-07
2.32498e-07
-1.695e-05
2.48401e-07
3.61453e-07
-1.63931e-05
2.82007e-07
5.02551e-07
-1.5687e-05
3.15577e-07
6.57413e-07
-1.48612e-05
3.48844e-07
8.27026e-07
-1.39463e-05
3.8158e-07
1.01179e-06
-1.29717e-05
4.13646e-07
1.21192e-06
-1.19636e-05
4.44934e-07
1.42749e-06
-1.09433e-05
4.75313e-07
1.65737e-06
-9.92751e-06
5.04592e-07
1.89921e-06
-8.92958e-06
5.32601e-07
2.15029e-06
-7.95943e-06
5.59226e-07
2.4083e-06
-7.0223e-06
5.84437e-07
2.67228e-06
-6.11791e-06
6.08153e-07
2.94346e-06
-5.23949e-06
6.2951e-07
3.2235e-06
-4.3734e-06
6.48174e-07
3.51378e-06
-3.50026e-06
6.63028e-07
3.81974e-06
-2.59692e-06
6.73141e-07
4.19257e-06
-1.62357e-06
6.73707e-07
4.45637e-06
-3.78397e-07
6.59601e-07
4.59952e-06
1.04485e-06
6.3255e-07
4.6555e-06
2.88404e-06
5.75695e-07
4.32513e-06
5.31709e-06
4.93723e-07
3.65782e-06
8.15694e-06
3.90916e-07
2.72169e-06
1.14056e-05
2.9621e-07
1.6522e-06
1.45963e-05
2.25406e-07
7.69327e-07
1.62928e-05
1.81635e-07
1.56295e-07
1.57082e-05
1.35757e-07
9.29391e-06
7.1092e-08
-1.50911e-07
-5.24309e-06
6.10987e-08
-3.07933e-07
-1.18116e-05
6.12617e-08
-3.21105e-07
-1.53417e-05
4.36381e-08
-2.22648e-07
-1.69625e-05
5.28934e-08
-7.41549e-08
-1.76058e-05
8.22461e-08
9.06638e-08
-1.77761e-05
1.20269e-07
2.63035e-07
-1.76592e-05
1.58485e-07
4.40927e-07
-1.73232e-05
1.95127e-07
6.23668e-07
-1.68071e-05
2.31072e-07
8.10214e-07
-1.61408e-05
2.67091e-07
9.99409e-07
-1.53534e-05
3.02855e-07
1.18982e-06
-1.44749e-05
3.38066e-07
1.37986e-06
-1.35345e-05
3.72568e-07
1.56811e-06
-1.25583e-05
4.06284e-07
1.75351e-06
-1.15681e-05
4.39168e-07
1.93493e-06
-1.05803e-05
4.71173e-07
2.10993e-06
-9.60704e-06
5.02239e-07
2.27539e-06
-8.65743e-06
5.32331e-07
2.42776e-06
-7.73633e-06
5.61448e-07
2.56353e-06
-6.84352e-06
5.89627e-07
2.67996e-06
-5.97309e-06
6.16947e-07
2.77613e-06
-5.11272e-06
6.42932e-07
2.85123e-06
-4.24291e-06
6.67324e-07
2.90166e-06
-3.33781e-06
6.90217e-07
2.93031e-06
-2.36051e-06
7.08023e-07
3.00721e-06
-1.17137e-06
7.15761e-07
2.90232e-06
4.48384e-07
7.01046e-07
2.81048e-06
2.3181e-06
6.57496e-07
2.48083e-06
5.07584e-06
5.70619e-07
1.85193e-06
8.31537e-06
4.70247e-07
1.08076e-06
1.1836e-05
3.40677e-07
4.28326e-07
1.50272e-05
2.21357e-07
6.69685e-08
1.65217e-05
1.32368e-07
-8.22413e-08
1.57718e-05
8.54664e-08
9.15955e-06
5.21037e-08
-1.66485e-07
-5.12479e-06
4.77341e-08
-3.07576e-07
-1.16969e-05
2.60892e-08
-2.71035e-07
-1.53734e-05
-5.07664e-09
-9.85547e-08
-1.71252e-05
-1.00009e-08
1.32497e-07
-1.78511e-05
1.4026e-08
3.79771e-07
-1.80733e-05
4.98145e-08
6.28558e-07
-1.79956e-05
8.74295e-08
8.72994e-07
-1.76922e-05
1.2438e-07
1.10955e-06
-1.72049e-05
1.61076e-07
1.33554e-06
-1.65652e-05
1.98197e-07
1.54943e-06
-1.58029e-05
2.35412e-07
1.75031e-06
-1.49483e-05
2.72297e-07
1.93744e-06
-1.40304e-05
3.08627e-07
2.10996e-06
-1.30753e-05
3.44322e-07
2.26688e-06
-1.21046e-05
3.79373e-07
2.40686e-06
-1.11343e-05
4.13817e-07
2.52727e-06
-1.01754e-05
4.47695e-07
2.62347e-06
-9.23497e-06
4.81078e-07
2.68945e-06
-8.31667e-06
5.14099e-07
2.7181e-06
-7.41936e-06
5.46907e-07
2.70248e-06
-6.53725e-06
5.79487e-07
2.63743e-06
-5.65989e-06
6.11908e-07
2.51889e-06
-4.76911e-06
6.44391e-07
2.33534e-06
-3.83311e-06
6.78463e-07
2.05966e-06
-2.8007e-06
7.15383e-07
1.73509e-06
-1.5983e-06
7.50888e-07
1.39662e-06
1.21518e-08
7.73938e-07
1.26473e-06
1.67789e-06
7.71251e-07
1.33844e-06
4.28352e-06
7.17862e-07
1.42e-06
7.62922e-06
6.03813e-07
1.33594e-06
1.14404e-05
4.78841e-07
1.05087e-06
1.49763e-05
3.35463e-07
7.08795e-07
1.66478e-05
2.15248e-07
3.12224e-07
1.60185e-05
1.49095e-07
9.3763e-06
9.54592e-08
-1.4251e-07
-4.99976e-06
1.69998e-08
-1.63627e-07
-1.1626e-05
-5.01224e-08
-1.40872e-09
-1.54513e-05
-8.46172e-08
2.99778e-07
-1.73469e-05
-7.96949e-08
6.57566e-07
-1.81541e-05
-5.49219e-08
1.02804e-06
-1.84226e-05
-2.13777e-08
1.39611e-06
-1.83776e-05
1.37345e-08
1.75674e-06
-1.81018e-05
4.88232e-08
2.10498e-06
-1.76376e-05
8.42895e-08
2.4369e-06
-1.7018e-05
1.20731e-07
2.75025e-06
-1.62742e-05
1.57698e-07
3.04382e-06
-1.54366e-05
1.94556e-07
3.317e-06
-1.45347e-05
2.30869e-07
3.56965e-06
-1.35946e-05
2.66433e-07
3.80185e-06
-1.26383e-05
3.01231e-07
4.01383e-06
-1.16819e-05
3.35339e-07
4.20536e-06
-1.0736e-05
3.68891e-07
4.37439e-06
-9.80625e-06
4.02029e-07
4.51685e-06
-8.8943e-06
4.3495e-07
4.62671e-06
-7.99729e-06
4.67857e-07
4.69558e-06
-7.10792e-06
5.01592e-07
4.71657e-06
-6.21638e-06
5.35277e-07
4.68995e-06
-5.31093e-06
5.68219e-07
4.62661e-06
-4.37168e-06
6.01685e-07
4.50678e-06
-3.32084e-06
6.39692e-07
4.29476e-06
-2.06853e-06
6.81956e-07
3.93555e-06
-3.55052e-07
7.26109e-07
3.71889e-06
1.13377e-06
7.60436e-07
3.80144e-06
3.41842e-06
7.82179e-07
3.94719e-06
6.73517e-06
7.48001e-07
3.82191e-06
1.09156e-05
6.49854e-07
3.24252e-06
1.50303e-05
5.25192e-07
2.14868e-06
1.73493e-05
3.92091e-07
9.27764e-07
1.69529e-05
2.86117e-07
1.01281e-05
1.75954e-07
-5.82861e-08
-4.92714e-06
-1.49446e-08
6.30825e-08
-1.16526e-05
-9.52497e-08
4.20065e-07
-1.56669e-05
-1.41694e-07
9.06306e-07
-1.76922e-05
-1.41197e-07
1.43456e-06
-1.85601e-05
-1.22508e-07
1.96222e-06
-1.88544e-05
-9.60488e-08
2.47425e-06
-1.88224e-05
-6.74288e-08
2.96664e-06
-1.85565e-05
-3.78607e-08
3.43289e-06
-1.80971e-05
-6.92728e-09
3.8712e-06
-1.74825e-05
2.59614e-08
4.28163e-06
-1.67451e-05
6.0317e-08
4.66546e-06
-1.5916e-05
9.53031e-08
5.02443e-06
-1.50241e-05
1.30177e-07
5.36126e-06
-1.40962e-05
1.64451e-07
5.67858e-06
-1.31538e-05
1.97919e-07
5.9786e-06
-1.22128e-05
2.30607e-07
6.2629e-06
-1.12834e-05
2.62696e-07
6.53186e-06
-1.037e-05
2.94387e-07
6.78349e-06
-9.472e-06
3.25669e-07
7.01046e-06
-8.58367e-06
3.58978e-07
7.20446e-06
-7.69357e-06
3.91172e-07
7.35229e-06
-6.78703e-06
4.2231e-07
7.44e-06
-5.85111e-06
4.51916e-07
7.44898e-06
-4.85928e-06
4.77988e-07
7.40122e-06
-3.78502e-06
5.11133e-07
7.33342e-06
-2.54939e-06
5.47724e-07
7.28172e-06
-8.90426e-07
5.86072e-07
6.82459e-06
9.81157e-07
6.08526e-07
6.5237e-06
3.089e-06
6.28753e-07
5.92992e-06
6.69643e-06
6.30871e-07
4.96619e-06
1.12833e-05
5.94834e-07
3.63864e-06
1.58332e-05
5.23903e-07
2.07937e-06
1.84598e-05
4.47865e-07
7.15077e-07
1.79762e-05
3.39709e-07
1.06667e-05
1.76434e-07
2.87086e-08
-4.89324e-06
-6.32104e-08
3.56861e-07
-1.18092e-05
-1.71995e-07
9.3307e-07
-1.60425e-05
-2.01013e-07
1.61038e-06
-1.81802e-05
-1.89586e-07
2.30591e-06
-1.90838e-05
-1.72042e-07
2.9853e-06
-1.93811e-05
-1.52898e-07
3.63845e-06
-1.93425e-05
-1.33216e-07
4.25561e-06
-1.90613e-05
-1.12644e-07
4.83177e-06
-1.85835e-05
-8.9997e-08
5.36505e-06
-1.79516e-05
-6.43794e-08
5.85687e-06
-1.72011e-05
-3.61441e-08
6.31161e-06
-1.63648e-05
-6.17524e-09
6.73496e-06
-1.54722e-05
2.45435e-08
7.13208e-06
-1.45488e-05
5.51804e-08
7.50676e-06
-1.36139e-05
8.51907e-08
7.86073e-06
-1.26814e-05
1.14343e-07
8.19356e-06
-1.17591e-05
1.42654e-07
8.50328e-06
-1.08502e-05
1.70282e-07
8.7849e-06
-9.95129e-06
1.97383e-07
9.02408e-06
-9.04853e-06
2.25397e-07
9.19527e-06
-8.12153e-06
2.5646e-07
9.2655e-06
-7.1465e-06
2.88949e-07
9.21383e-06
-6.12185e-06
3.22085e-07
8.99928e-06
-5.0175e-06
3.72376e-07
8.64788e-06
-3.85368e-06
4.19619e-07
8.19697e-06
-2.56294e-06
4.63879e-07
7.76959e-06
-9.66372e-07
5.02659e-07
7.22398e-06
9.94643e-07
5.3137e-07
6.45048e-06
3.33296e-06
5.2873e-07
5.13045e-06
7.52435e-06
4.91387e-07
3.44658e-06
1.25491e-05
4.17369e-07
1.81639e-06
1.71236e-05
3.392e-07
7.19586e-07
1.92641e-05
2.91732e-07
8.25945e-08
1.83824e-05
2.29724e-07
1.06411e-05
1.08161e-07
1.49994e-07
-4.93935e-06
-1.0471e-07
7.50155e-07
-1.21881e-05
-2.2186e-07
1.58457e-06
-1.66418e-05
-2.35603e-07
2.4611e-06
-1.88382e-05
-2.18969e-07
3.31977e-06
-1.97366e-05
-2.06171e-07
4.1431e-06
-2.00085e-05
-1.96252e-07
4.93176e-06
-1.99445e-05
-1.87032e-07
5.67475e-06
-1.96271e-05
-1.7748e-07
6.36971e-06
-1.9113e-05
-1.65767e-07
7.01503e-06
-1.84464e-05
-1.50931e-07
7.61236e-06
-1.7666e-05
-1.32823e-07
8.16673e-06
-1.68076e-05
-1.12034e-07
8.68575e-06
-1.59021e-05
-8.9538e-08
9.1768e-06
-1.49739e-05
-6.63445e-08
9.64569e-06
-1.404e-05
-4.32569e-08
1.00947e-05
-1.31102e-05
-2.07257e-08
1.0521e-05
-1.21871e-05
1.20382e-09
1.09166e-05
-1.12692e-05
2.28757e-08
1.12673e-05
-1.03476e-05
4.5114e-08
1.15309e-05
-9.37797e-06
6.52923e-08
1.16493e-05
-8.32454e-06
8.39912e-08
1.1569e-05
-7.17412e-06
1.07356e-07
1.1208e-05
-5.91522e-06
1.53585e-07
1.0579e-05
-4.58171e-06
1.92445e-07
9.64515e-06
-3.16667e-06
2.45957e-07
8.4528e-06
-1.69045e-06
3.18866e-07
7.00041e-06
6.83666e-08
4.16614e-07
5.94418e-06
1.56699e-06
4.82739e-07
4.63839e-06
4.11505e-06
5.22481e-07
3.26228e-06
8.4149e-06
4.84416e-07
1.88966e-06
1.35439e-05
3.76922e-07
8.80025e-07
1.78646e-05
2.67904e-07
3.45288e-07
1.96117e-05
1.86371e-07
4.8999e-08
1.85588e-05
1.1895e-07
1.06356e-05
5.44949e-08
3.54187e-07
-5.13715e-06
-1.57413e-07
1.29556e-06
-1.28719e-05
-2.58277e-07
2.38511e-06
-1.74884e-05
-2.43447e-07
3.42395e-06
-1.96583e-05
-2.1917e-07
4.40219e-06
-2.05041e-05
-2.11163e-07
5.32896e-06
-2.07249e-05
-2.10756e-07
6.21673e-06
-2.06204e-05
-2.12168e-07
7.06206e-06
-2.02586e-05
-2.14159e-07
7.8675e-06
-1.97046e-05
-2.14253e-07
8.63788e-06
-1.90054e-05
-2.11735e-07
9.37888e-06
-1.8201e-05
-2.0633e-07
1.0097e-05
-1.73276e-05
-1.98429e-07
1.08e-05
-1.64168e-05
-1.88841e-07
1.14968e-05
-1.54927e-05
-1.78525e-07
1.21947e-05
-1.457e-05
-1.68408e-07
1.28967e-05
-1.36535e-05
-1.59195e-07
1.35972e-05
-1.27368e-05
-1.51306e-07
1.42778e-05
-1.18052e-05
-1.4523e-07
1.49233e-05
-1.08524e-05
-1.41167e-07
1.54054e-05
-9.72022e-06
-1.40466e-07
1.55963e-05
-8.37344e-06
-1.42687e-07
1.54015e-05
-6.8489e-06
-1.31231e-07
1.47995e-05
-5.19018e-06
-1.23884e-07
1.37422e-05
-3.4232e-06
-1.02072e-07
1.22886e-05
-1.66369e-06
-5.05339e-08
1.03532e-05
1.85945e-07
5.79546e-08
8.51222e-06
1.69536e-06
2.12948e-07
6.63159e-06
3.09276e-06
3.53594e-07
4.96592e-06
5.28475e-06
4.94458e-07
3.90948e-06
8.92505e-06
5.44879e-07
3.07026e-06
1.39275e-05
4.545e-07
2.29651e-06
1.83336e-05
3.03882e-07
1.4669e-06
2.02434e-05
1.9691e-07
6.05021e-07
1.92974e-05
1.21926e-07
1.12009e-05
3.96365e-08
6.46423e-07
-5.59111e-06
-1.93762e-07
1.91435e-06
-1.38848e-05
-2.55886e-07
3.15643e-06
-1.85162e-05
-2.14908e-07
4.24054e-06
-2.05528e-05
-1.90098e-07
5.22888e-06
-2.13043e-05
-1.8857e-07
6.16281e-06
-2.14631e-05
-1.96102e-07
7.06419e-06
-2.13169e-05
-2.05363e-07
7.93828e-06
-2.09174e-05
-2.15729e-07
8.79504e-06
-2.03374e-05
-2.24396e-07
9.64537e-06
-1.96251e-05
-2.31131e-07
1.05006e-05
-1.8821e-05
-2.35822e-07
1.13717e-05
-1.79604e-05
-2.38965e-07
1.227e-05
-1.70742e-05
-2.41398e-07
1.32067e-05
-1.61858e-05
-2.44162e-07
1.41899e-05
-1.53054e-05
-2.48427e-07
1.52249e-05
-1.44338e-05
-2.55266e-07
1.63154e-05
-1.35625e-05
-2.655e-07
1.73795e-05
-1.25871e-05
-2.8284e-07
1.82194e-05
-1.13836e-05
-3.09348e-07
1.87542e-05
-9.90016e-06
-3.55812e-07
1.88755e-05
-8.08688e-06
-4.08901e-07
1.8498e-05
-6.00296e-06
-4.69513e-07
1.75627e-05
-3.73857e-06
-5.17513e-07
1.61223e-05
-1.43959e-06
-5.44525e-07
1.46808e-05
2.90078e-07
-5.13434e-07
1.30397e-05
2.24849e-06
-4.22345e-07
1.13005e-05
3.7273e-06
-2.93801e-07
9.1541e-06
5.34348e-06
-1.05568e-07
7.07099e-06
7.23188e-06
1.34605e-07
5.50119e-06
1.01357e-05
3.577e-07
4.40282e-06
1.46037e-05
4.20921e-07
3.29301e-06
1.91036e-05
3.38911e-07
2.06538e-06
2.12561e-05
2.13895e-07
8.35999e-07
2.04117e-05
1.13465e-07
1.20362e-05
6.04472e-10
9.31457e-07
-6.32386e-06
-1.99873e-07
2.32098e-06
-1.5075e-05
-1.99996e-07
3.49464e-06
-1.95496e-05
-1.40852e-07
4.44598e-06
-2.13806e-05
-1.23976e-07
5.2896e-06
-2.20172e-05
-1.31142e-07
6.08397e-06
-2.2113e-05
-1.4478e-07
6.85211e-06
-2.19279e-05
-1.57495e-07
7.60567e-06
-2.15015e-05
-1.69875e-07
8.35313e-06
-2.09054e-05
-1.79948e-07
9.10435e-06
-2.01888e-05
-1.87982e-07
9.87595e-06
-1.93991e-05
-1.94016e-07
1.06884e-05
-1.85746e-05
-1.98756e-07
1.15553e-05
-1.77383e-05
-2.0335e-07
1.24859e-05
-1.6908e-05
-2.09129e-07
1.34844e-05
-1.60871e-05
-2.17494e-07
1.45289e-05
-1.52499e-05
-2.29108e-07
1.55301e-05
-1.43204e-05
-2.43974e-07
1.64246e-05
-1.31957e-05
-2.86712e-07
1.70425e-05
-1.16256e-05
-3.77086e-07
1.70261e-05
-9.39572e-06
-4.89176e-07
1.61724e-05
-6.59807e-06
-6.36498e-07
1.46089e-05
-3.63742e-06
-8.0354e-07
1.29594e-05
-1.13504e-06
-9.55447e-07
1.14246e-05
1.14038e-06
-1.04635e-06
1.0033e-05
2.75965e-06
-1.0791e-06
8.90844e-06
4.43147e-06
-1.05956e-06
7.58341e-06
6.011e-06
-9.59853e-07
6.1285e-06
7.5654e-06
-7.68311e-07
4.53657e-06
9.29159e-06
-4.69226e-07
3.09185e-06
1.16616e-05
-8.26299e-08
2.14175e-06
1.53187e-05
2.33843e-07
1.31503e-06
1.96297e-05
2.99563e-07
5.32665e-07
2.18637e-05
1.73509e-07
-3.37573e-08
2.09503e-05