/*--------------------------------*- C++ -*----------------------------------*\
| =========                 |                                                 |
| \\      /  F ield         | OpenFOAM: The Open Source CFD Toolbox           |
|  \\    /   O peration     | Version:  2.0.x                                 |
|   \\  /    A nd           | Web:      www.OpenFOAM.org                      |
|    \\/     M anipulation  |                                                 |
\*---------------------------------------------------------------------------*/
FoamFile
{
    version     2.0;
    format      ascii;
    class       volScalarField;
    location    "250";
    object      T;
}
// * * * * * * * * * * * * * * * * * * * * * * * * * * * * * * * * * * * * * //

dimensions      [0 0 0 1 0 0 0];

internalField   nonuniform List<scalar> 
78750
(
288.384
288.73
288.969
289.174
289.354
289.512
289.654
289.783
289.903
290.008
290.107
290.194
290.271
290.338
290.396
290.444
290.486
290.518
290.545
290.562
290.574
290.576
290.576
290.578
290.577
290.576
290.575
290.574
290.573
290.571
290.571
290.589
290.85
293.197
301.185
288.309
288.614
288.911
289.209
289.5
289.775
290.033
290.274
290.508
290.719
290.912
291.086
291.244
291.384
291.507
291.614
291.704
291.767
291.811
291.835
291.844
291.842
291.822
291.781
291.711
291.625
291.519
291.397
291.263
291.12
290.965
290.881
291.124
293.675
301.453
288.398
288.906
289.41
289.883
290.299
290.646
290.936
291.185
291.397
291.59
291.764
291.914
292.034
292.122
292.172
292.19
292.188
292.182
292.176
292.17
292.159
292.143
292.118
292.077
292.013
291.93
291.829
291.702
291.547
291.379
291.262
291.382
292.442
295.583
302.56
288.493
289.177
289.791
290.257
290.585
290.841
291.066
291.275
291.475
291.666
291.84
291.987
292.101
292.179
292.214
292.211
292.178
292.132
292.091
292.064
292.051
292.046
292.041
292.021
291.974
291.899
291.798
291.678
291.559
291.486
291.574
292.157
293.736
297.019
303.364
288.535
289.266
289.866
290.309
290.643
290.924
291.18
291.419
291.639
291.839
292.017
292.167
292.279
292.338
292.341
292.297
292.213
292.115
292.018
291.932
291.862
291.812
291.781
291.757
291.729
291.69
291.641
291.597
291.57
291.643
292.003
292.974
294.853
298.142
303.98
288.565
289.335
289.951
290.381
290.694
290.959
291.204
291.436
291.654
291.854
292.031
292.182
292.305
292.39
292.433
292.423
292.358
292.248
292.115
291.983
291.868
291.775
291.703
291.651
291.618
291.602
291.602
291.627
291.731
291.997
292.6
293.832
295.831
299.008
304.383
288.571
289.345
289.961
290.396
290.717
290.988
291.236
291.466
291.681
291.879
292.056
292.213
292.346
292.453
292.527
292.564
292.556
292.497
292.391
292.251
292.097
291.947
291.814
291.707
291.636
291.608
291.617
291.701
291.911
292.335
293.144
294.577
296.651
299.715
304.688
288.578
289.358
289.974
290.407
290.725
290.993
291.239
291.468
291.683
291.88
292.057
292.214
292.348
292.463
292.553
292.617
292.653
292.655
292.623
292.549
292.447
292.326
292.197
292.071
291.952
291.854
291.815
291.864
292.065
292.523
293.413
294.936
297.047
300.062
304.832
288.579
289.358
289.975
290.408
290.726
290.994
291.239
291.468
291.682
291.879
292.056
292.213
292.348
292.464
292.562
292.643
292.702
292.739
292.754
292.742
292.7
292.634
292.547
292.449
292.35
292.258
292.192
292.189
292.3
292.68
293.512
295.024
297.184
300.229
304.899
288.579
289.359
289.974
290.408
290.727
290.994
291.239
291.468
291.681
291.877
292.054
292.211
292.347
292.464
292.562
292.646
292.717
292.773
292.81
292.83
292.832
292.815
292.776
292.72
292.654
292.592
292.554
292.565
292.701
293.094
293.954
295.526
297.715
300.685
305.097
288.577
289.353
289.967
290.403
290.722
290.989
291.23
291.453
291.66
291.852
292.029
292.187
292.328
292.451
292.556
292.645
292.718
292.78
292.832
292.869
292.894
292.906
292.904
292.887
292.858
292.83
292.828
292.887
293.115
293.642
294.655
296.307
298.414
301.195
305.317
288.571
289.335
289.943
290.378
290.698
290.964
291.204
291.426
291.633
291.826
292.002
292.162
292.304
292.43
292.539
292.634
292.714
292.78
292.837
292.885
292.923
292.952
292.971
292.981
292.982
292.98
292.991
293.066
293.306
293.868
294.918
296.575
298.631
301.349
305.37
288.566
289.319
289.921
290.356
290.675
290.939
291.176
291.395
291.6
291.791
291.967
292.128
292.272
292.401
292.515
292.614
292.7
292.773
292.836
292.889
292.936
292.975
293.007
293.035
293.059
293.079
293.106
293.167
293.351
293.858
294.864
296.523
298.634
301.362
305.368
288.56
289.305
289.901
290.334
290.653
290.915
291.151
291.369
291.573
291.764
291.94
292.101
292.247
292.378
292.494
292.596
292.685
292.763
292.831
292.889
292.941
292.989
293.032
293.073
293.118
293.171
293.241
293.352
293.564
294.007
294.957
296.623
298.772
301.532
305.451
288.556
289.29
289.879
290.312
290.629
290.889
291.12
291.334
291.534
291.722
291.896
292.057
292.205
292.338
292.458
292.564
292.659
292.742
292.816
292.881
292.939
292.991
293.042
293.093
293.15
293.227
293.349
293.552
293.906
294.531
295.621
297.319
299.345
301.908
305.613
288.548
289.269
289.855
290.289
290.607
290.866
291.095
291.307
291.505
291.691
291.864
292.025
292.171
292.305
292.425
292.533
292.63
292.716
292.793
292.863
292.926
292.985
293.04
293.096
293.155
293.231
293.348
293.554
293.932
294.605
295.726
297.405
299.393
301.916
305.605
288.542
289.254
289.837
290.277
290.6
290.86
291.088
291.298
291.493
291.676
291.847
292.004
292.148
292.279
292.398
292.506
292.603
292.69
292.769
292.842
292.908
292.971
293.032
293.092
293.155
293.226
293.313
293.444
293.7
294.233
295.25
296.905
298.977
301.635
305.462
288.534
289.236
289.82
290.267
290.594
290.856
291.086
291.296
291.492
291.674
291.843
291.999
292.142
292.272
292.39
292.496
292.592
292.679
292.758
292.831
292.899
292.963
293.027
293.092
293.164
293.251
293.359
293.489
293.684
294.102
295.011
296.666
298.858
301.619
305.46
288.529
289.226
289.812
290.266
290.609
290.882
291.12
291.336
291.536
291.721
291.891
292.045
292.184
292.309
292.422
292.523
292.615
292.699
292.776
292.848
292.916
292.981
293.045
293.11
293.185
293.282
293.426
293.652
293.995
294.516
295.459
297.14
299.293
301.96
305.624
288.527
289.223
289.818
290.284
290.63
290.906
291.149
291.372
291.577
291.768
291.942
292.1
292.243
292.37
292.484
292.586
292.678
292.763
292.842
292.917
292.988
293.055
293.117
293.172
293.229
293.306
293.447
293.708
294.178
294.964
296.201
297.956
299.924
302.321
305.768
288.529
289.239
289.85
290.32
290.667
290.946
291.192
291.416
291.623
291.815
291.99
292.149
292.293
292.422
292.539
292.646
292.746
292.841
292.933
293.024
293.115
293.2
293.274
293.33
293.368
293.4
293.468
293.644
294.091
294.973
296.254
298.046
299.982
302.331
305.762
288.537
289.273
289.904
290.384
290.736
291.02
291.27
291.499
291.71
291.902
292.078
292.236
292.379
292.508
292.626
292.737
292.847
292.958
293.077
293.208
293.344
293.466
293.557
293.611
293.635
293.631
293.622
293.658
293.887
294.55
295.949
297.924
299.954
302.316
305.725
288.555
289.328
289.977
290.455
290.806
291.092
291.347
291.579
291.793
291.988
292.166
292.327
292.472
292.606
292.733
292.859
292.993
293.148
293.344
293.574
293.796
293.961
294.048
294.071
294.062
294.029
293.989
293.967
294.046
294.538
295.648
297.468
299.574
302.113
305.669
288.583
289.397
290.054
290.523
290.867
291.153
291.408
291.642
291.858
292.054
292.232
292.393
292.539
292.677
292.813
292.963
293.148
293.402
293.757
294.189
294.539
294.694
294.696
294.631
294.531
294.429
294.35
294.315
294.374
294.686
295.678
297.455
299.559
302.102
305.668
288.608
289.454
290.119
290.585
290.929
291.216
291.473
291.709
291.926
292.123
292.301
292.458
292.601
292.735
292.873
293.037
293.269
293.632
294.19
294.818
295.171
295.198
295.108
294.967
294.798
294.627
294.486
294.413
294.458
294.76
295.687
297.452
299.555
302.097
305.685
288.626
289.483
290.14
290.6
290.94
291.226
291.483
291.72
291.938
292.137
292.316
292.476
292.62
292.754
292.891
293.056
293.301
293.689
294.29
295.028
295.613
295.825
295.782
295.6
295.358
295.089
294.83
294.643
294.616
294.901
295.81
297.54
299.616
302.175
305.796
288.638
289.499
290.151
290.607
290.945
291.229
291.484
291.72
291.936
292.133
292.308
292.462
292.597
292.716
292.826
292.934
293.056
293.279
293.732
294.531
295.499
296.2
296.522
296.545
296.413
296.21
295.987
295.816
295.791
296.14
297.09
298.583
300.393
302.761
306.022
288.636
289.484
290.131
290.588
290.926
291.209
291.463
291.698
291.915
292.112
292.288
292.445
292.584
292.709
292.822
292.927
293.031
293.151
293.352
293.798
294.668
295.754
296.599
297.057
297.284
297.385
297.429
297.497
297.698
298.173
299.006
300.121
301.556
303.613
306.309
288.625
289.455
290.101
290.568
290.913
291.199
291.455
291.692
291.908
292.104
292.28
292.436
292.574
292.698
292.811
292.916
293.017
293.116
293.223
293.364
293.669
294.417
295.553
296.648
297.353
297.774
298.108
298.461
298.895
299.47
300.2
301.09
302.269
304.005
306.418
288.61
289.415
290.057
290.535
290.89
291.182
291.443
291.682
291.901
292.099
292.276
292.432
292.571
292.696
292.81
292.915
293.016
293.115
293.216
293.323
293.441
293.61
294.033
294.911
296.185
297.292
298.055
298.532
299.054
299.667
300.388
301.231
302.325
304.009
306.403
288.589
289.384
290.037
290.519
290.876
291.169
291.431
291.671
291.892
292.091
292.269
292.427
292.568
292.694
292.81
292.919
293.024
293.127
293.229
293.329
293.426
293.518
293.62
293.78
294.13
294.837
295.875
297.092
298.214
299.238
300.18
301.088
302.133
303.7
306.191
288.586
289.381
290.036
290.531
290.898
291.198
291.467
291.711
291.934
292.135
292.314
292.474
292.617
292.747
292.87
292.988
293.106
293.227
293.354
293.482
293.601
293.7
293.775
293.831
293.899
294.042
294.362
294.985
295.949
297.205
298.622
300.034
301.386
303.123
305.967
288.583
289.385
290.054
290.553
290.923
291.227
291.499
291.747
291.973
292.176
292.358
292.521
292.668
292.805
292.938
293.073
293.215
293.372
293.542
293.709
293.857
293.974
294.058
294.109
294.135
294.159
294.236
294.438
294.88
295.729
297.056
298.738
300.439
302.499
305.735
288.598
289.427
290.107
290.605
290.974
291.281
291.557
291.808
292.036
292.241
292.425
292.59
292.741
292.887
293.034
293.193
293.378
293.593
293.825
294.046
294.227
294.359
294.446
294.496
294.519
294.524
294.518
294.553
294.792
295.389
296.547
298.265
300.108
302.314
305.683
288.614
289.467
290.153
290.648
291.015
291.322
291.598
291.852
292.08
292.285
292.469
292.636
292.792
292.947
293.113
293.307
293.545
293.835
294.16
294.445
294.647
294.773
294.851
294.901
294.931
294.941
294.939
294.945
295.026
295.448
296.545
298.283
300.098
302.308
305.709
288.626
289.49
290.175
290.66
291.023
291.329
291.605
291.854
292.082
292.288
292.472
292.639
292.797
292.955
293.128
293.337
293.614
293.984
294.392
294.728
294.954
295.096
295.193
295.263
295.315
295.349
295.373
295.407
295.518
295.896
296.829
298.448
300.217
302.337
305.723
288.63
289.498
290.179
290.662
291.023
291.329
291.604
291.856
292.084
292.29
292.473
292.639
292.797
292.954
293.127
293.337
293.616
293.996
294.458
294.91
295.211
295.393
295.517
295.605
295.671
295.718
295.752
295.791
295.892
296.216
297.067
298.542
300.155
302.234
305.682
288.635
289.501
290.179
290.661
291.022
291.327
291.602
291.853
292.079
292.283
292.464
292.627
292.777
292.923
293.083
293.28
293.55
293.938
294.453
295.005
295.464
295.752
295.927
296.043
296.124
296.182
296.221
296.255
296.326
296.556
297.22
298.549
300.114
302.155
305.637
288.633
289.494
290.161
290.633
290.986
291.286
291.555
291.802
292.026
292.228
292.408
292.569
292.713
292.848
292.984
293.139
293.345
293.654
294.132
294.784
295.462
295.984
296.309
296.505
296.634
296.724
296.792
296.854
296.941
297.136
297.632
298.655
300.116
302.155
305.633
288.62
289.457
290.114
290.588
290.943
291.242
291.513
291.762
291.989
292.194
292.379
292.544
292.693
292.83
292.96
293.092
293.244
293.453
293.792
294.335
295.094
295.891
296.51
296.922
297.174
297.344
297.473
297.585
297.718
297.937
298.359
299.12
300.26
302.181
305.644
288.607
289.426
290.081
290.557
290.913
291.214
291.484
291.732
291.958
292.163
292.346
292.51
292.658
292.795
292.927
293.06
293.2
293.357
293.558
293.905
294.499
295.372
296.306
296.996
297.501
297.858
298.127
298.358
298.596
298.893
299.317
299.943
300.877
302.564
305.765
288.597
289.405
290.057
290.532
290.889
291.19
291.461
291.711
291.939
292.146
292.332
292.5
292.652
292.791
292.924
293.058
293.198
293.351
293.531
293.76
294.144
294.835
295.807
296.793
297.509
298.082
298.554
298.945
299.316
299.711
300.168
300.735
301.545
303.058
305.942
288.593
289.397
290.049
290.528
290.886
291.186
291.457
291.707
291.935
292.143
292.33
292.499
292.653
292.798
292.937
293.076
293.218
293.369
293.535
293.737
294.012
294.432
295.173
296.174
297.234
298.041
298.628
299.169
299.664
300.159
300.683
301.267
302.035
303.414
306.061
288.589
289.394
290.057
290.547
290.913
291.221
291.499
291.755
291.989
292.2
292.389
292.561
292.72
292.874
293.028
293.187
293.35
293.512
293.667
293.828
294.027
294.333
294.822
295.598
296.651
297.705
298.561
299.204
299.812
300.39
300.972
301.593
302.368
303.688
306.166
288.597
289.424
290.1
290.592
290.96
291.271
291.552
291.811
292.048
292.262
292.458
292.639
292.814
292.992
293.181
293.386
293.593
293.783
293.945
294.091
294.252
294.474
294.824
295.387
296.266
297.352
298.379
299.198
299.862
300.492
301.117
301.766
302.564
303.883
306.26
288.611
289.459
290.142
290.631
290.997
291.308
291.591
291.852
292.09
292.308
292.51
292.704
292.901
293.116
293.364
293.639
293.902
294.111
294.267
294.397
294.534
294.71
294.969
295.385
296.023
296.927
297.959
298.937
299.772
300.486
301.146
301.821
302.632
303.953
306.297
288.625
289.496
290.191
290.683
291.051
291.366
291.652
291.914
292.153
292.372
292.579
292.785
293.005
293.268
293.594
293.951
294.245
294.43
294.546
294.644
294.756
294.905
295.124
295.466
296.009
296.752
297.647
298.617
299.543
300.376
301.131
301.847
302.689
304.033
306.345
288.645
289.541
290.24
290.728
291.095
291.411
291.698
291.961
292.2
292.419
292.627
292.838
293.08
293.389
293.788
294.216
294.534
294.7
294.791
294.867
294.961
295.096
295.3
295.609
296.073
296.754
297.627
298.592
299.527
300.375
301.147
301.886
302.755
304.129
306.396
288.653
289.563
290.266
290.752
291.118
291.435
291.722
291.984
292.221
292.434
292.633
292.844
293.091
293.411
293.84
294.341
294.748
294.955
295.04
295.095
295.163
295.266
295.425
295.678
296.077
296.662
297.454
298.396
299.385
300.31
301.132
301.885
302.76
304.147
306.402
288.671
289.596
290.293
290.772
291.135
291.45
291.736
291.996
292.229
292.441
292.637
292.832
293.056
293.367
293.826
294.432
294.997
295.297
295.4
295.434
295.465
295.521
295.617
295.786
296.08
296.551
297.186
298.002
298.936
299.893
300.793
301.645
302.61
304.063
306.378
288.674
289.599
290.294
290.772
291.134
291.447
291.729
291.984
292.212
292.414
292.596
292.775
292.98
293.256
293.676
294.309
295.069
295.629
295.862
295.91
295.914
295.915
295.941
296.016
296.191
296.548
297.121
297.874
298.752
299.692
300.603
301.461
302.45
303.964
306.338
288.675
289.598
290.286
290.754
291.108
291.416
291.695
291.949
292.177
292.381
292.561
292.726
292.897
293.12
293.468
294.045
294.882
295.74
296.269
296.505
296.563
296.561
296.543
296.532
296.568
296.73
297.151
297.875
298.76
299.697
300.598
301.452
302.444
303.966
306.345
288.674
289.58
290.25
290.711
291.061
291.362
291.635
291.884
292.109
292.309
292.483
292.635
292.773
292.923
293.14
293.525
294.228
295.272
296.265
296.872
297.173
297.295
297.332
297.341
297.37
297.48
297.74
298.225
298.965
299.828
300.689
301.526
302.533
304.099
306.438
288.66
289.538
290.196
290.651
290.993
291.287
291.554
291.799
292.024
292.226
292.407
292.564
292.699
292.813
292.923
293.08
293.398
294.074
295.201
296.366
297.188
297.661
297.937
298.123
298.286
298.487
298.784
299.222
299.804
300.468
301.158
301.889
302.838
304.341
306.518
288.646
289.504
290.156
290.614
290.956
291.245
291.508
291.748
291.967
292.164
292.34
292.498
292.64
292.769
292.883
292.979
293.077
293.256
293.723
294.74
296.056
297.181
297.916
298.336
298.683
299.034
299.426
299.886
300.411
300.972
301.555
302.2
303.064
304.446
306.531
288.626
289.457
290.102
290.566
290.911
291.2
291.46
291.697
291.913
292.108
292.282
292.436
292.572
292.694
292.81
292.922
293.03
293.13
293.24
293.459
294.079
295.301
296.702
297.895
298.623
299.062
299.505
299.982
300.501
301.056
301.637
302.264
303.084
304.432
306.506
288.613
289.424
290.065
290.534
290.881
291.17
291.43
291.668
291.885
292.082
292.257
292.412
292.549
292.671
292.781
292.883
292.984
293.089
293.202
293.323
293.483
293.794
294.614
296.029
297.503
298.677
299.42
299.952
300.481
301.041
301.625
302.254
303.068
304.4
306.475
288.592
289.385
290.031
290.513
290.87
291.164
291.425
291.662
291.879
292.074
292.247
292.401
292.537
292.659
292.769
292.872
292.973
293.075
293.183
293.304
293.441
293.604
293.822
294.193
295.114
296.322
297.735
299.038
300.026
300.779
301.426
302.069
302.85
304.11
306.321
288.579
289.364
290.014
290.499
290.862
291.162
291.428
291.67
291.889
292.087
292.262
292.416
292.553
292.674
292.785
292.889
292.992
293.099
293.216
293.349
293.5
293.661
293.811
293.965
294.197
294.685
295.63
297.004
298.454
299.699
300.694
301.54
302.425
303.758
306.167
288.577
289.362
290.015
290.502
290.864
291.163
291.43
291.673
291.893
292.092
292.269
292.426
292.565
292.689
292.804
292.912
293.022
293.138
293.27
293.429
293.623
293.835
294.031
294.19
294.325
294.528
294.959
295.872
297.275
298.822
300.194
301.3
302.305
303.686
306.159
288.579
289.371
290.026
290.513
290.877
291.178
291.448
291.693
291.917
292.118
292.297
292.455
292.594
292.719
292.833
292.944
293.056
293.181
293.33
293.52
293.761
294.029
294.274
294.462
294.602
294.743
295.003
295.622
296.776
298.327
299.883
301.176
302.291
303.694
306.184
288.583
289.383
290.042
290.528
290.89
291.191
291.461
291.706
291.929
292.129
292.307
292.464
292.604
292.73
292.846
292.959
293.076
293.208
293.371
293.59
293.881
294.212
294.509
294.725
294.877
295.01
295.202
295.624
296.446
297.757
299.293
300.702
301.955
303.546
306.165
288.59
289.401
290.064
290.55
290.912
291.214
291.485
291.732
291.956
292.158
292.336
292.493
292.632
292.756
292.871
292.983
293.1
293.235
293.407
293.649
293.984
294.383
294.746
295.008
295.192
295.324
295.463
295.725
296.369
297.422
298.822
300.241
301.534
303.197
306.038
288.595
289.416
290.083
290.567
290.927
291.229
291.499
291.745
291.968
292.169
292.347
292.503
292.641
292.765
292.881
292.995
293.115
293.253
293.431
293.687
294.062
294.539
295.003
295.356
295.599
295.747
295.851
295.998
296.4
297.388
298.754
300.156
301.442
303.121
306.006
288.605
289.436
290.103
290.585
290.945
291.247
291.518
291.765
291.988
292.188
292.364
292.519
292.656
292.78
292.895
293.009
293.13
293.27
293.454
293.721
294.124
294.677
295.27
295.754
296.108
296.325
296.45
296.571
296.84
297.541
298.795
300.165
301.448
303.151
306.043
288.611
289.449
290.119
290.602
290.961
291.262
291.532
291.778
292
292.199
292.374
292.527
292.663
292.785
292.9
293.014
293.135
293.277
293.461
293.732
294.145
294.736
295.422
296.061
296.573
296.942
297.204
297.442
297.803
298.489
299.542
300.625
301.774
303.455
306.167
288.614
289.454
290.124
290.606
290.965
291.267
291.537
291.783
292.005
292.203
292.377
292.53
292.665
292.787
292.903
293.018
293.141
293.284
293.467
293.723
294.114
294.69
295.42
296.157
296.814
297.37
297.833
298.265
298.777
299.483
300.364
301.25
302.26
303.826
306.302
288.617
289.458
290.126
290.608
290.967
291.268
291.538
291.783
292.005
292.203
292.377
292.531
292.666
292.787
292.901
293.014
293.136
293.278
293.46
293.712
294.078
294.608
295.306
296.074
296.82
297.496
298.121
298.731
299.374
300.103
300.887
301.667
302.6
304.083
306.393
288.617
289.457
290.126
290.608
290.967
291.268
291.538
291.783
292.005
292.203
292.377
292.529
292.662
292.782
292.894
293.006
293.125
293.264
293.439
293.679
294.02
294.5
295.136
295.866
296.623
297.387
298.117
298.844
299.589
300.36
301.121
301.868
302.774
304.213
306.44
288.614
289.446
290.111
290.596
290.957
291.259
291.528
291.773
291.995
292.192
292.366
292.518
292.651
292.77
292.882
292.991
293.106
293.238
293.402
293.623
293.935
294.377
294.974
295.688
296.451
297.248
298.054
298.843
299.628
300.419
301.183
301.927
302.828
304.253
306.451
288.606
289.424
290.084
290.57
290.933
291.235
291.505
291.751
291.973
292.171
292.346
292.499
292.634
292.754
292.864
292.972
293.083
293.206
293.354
293.542
293.794
294.148
294.648
295.311
296.076
296.906
297.789
298.7
299.59
300.406
301.176
301.923
302.823
304.245
306.445
288.595
289.397
290.051
290.538
290.903
291.206
291.477
291.723
291.947
292.147
292.323
292.477
292.612
292.732
292.843
292.948
293.055
293.171
293.305
293.468
293.676
293.947
294.302
294.788
295.411
296.136
296.968
297.903
298.908
299.933
300.873
301.72
302.661
304.091
306.37
288.581
289.365
290.014
290.503
290.87
291.175
291.447
291.695
291.919
292.121
292.298
292.453
292.59
292.713
292.826
292.935
293.045
293.162
293.293
293.446
293.632
293.857
294.139
294.483
294.906
295.431
296.091
296.906
297.881
298.973
300.07
301.091
302.155
303.676
306.193
288.569
289.341
289.986
290.477
290.845
291.152
291.426
291.677
291.904
292.106
292.283
292.439
292.579
292.704
292.821
292.934
293.05
293.172
293.306
293.457
293.629
293.841
294.106
294.426
294.787
295.206
295.737
296.432
297.327
298.422
299.633
300.788
301.929
303.499
306.135
288.564
289.331
289.977
290.47
290.835
291.143
291.42
291.672
291.901
292.107
292.293
292.459
292.606
292.737
292.86
292.982
293.111
293.253
293.41
293.579
293.759
293.965
294.223
294.543
294.925
295.366
295.857
296.446
297.284
298.372
299.611
300.773
301.917
303.501
306.141
288.562
289.324
289.97
290.466
290.85
291.166
291.446
291.704
291.939
292.152
292.338
292.5
292.644
292.778
292.911
293.053
293.214
293.4
293.601
293.794
293.971
294.155
294.387
294.696
295.104
295.627
296.23
296.881
297.65
298.683
299.882
300.977
302.081
303.672
306.218
288.567
289.346
290.001
290.491
290.858
291.168
291.45
291.707
291.942
292.155
292.346
292.518
292.675
292.826
292.983
293.166
293.391
293.659
293.931
294.151
294.316
294.466
294.653
294.926
295.341
295.927
296.635
297.416
298.287
299.298
300.363
301.329
302.361
303.905
306.329
288.574
289.36
290.011
290.495
290.861
291.173
291.455
291.714
291.951
292.165
292.357
292.531
292.695
292.862
293.052
293.294
293.628
294.023
294.378
294.594
294.701
294.783
294.907
295.124
295.489
296.041
296.764
297.593
298.506
299.5
300.502
301.419
302.426
303.951
306.342
288.579
289.37
290.017
290.495
290.861
291.172
291.454
291.713
291.951
292.165
292.357
292.532
292.696
292.864
293.061
293.33
293.729
294.276
294.744
294.985
295.067
295.102
295.151
295.259
295.491
295.896
296.514
297.336
298.295
299.336
300.381
301.336
302.362
303.887
306.308
288.584
289.378
290.02
290.497
290.859
291.167
291.446
291.703
291.94
292.154
292.346
292.517
292.674
292.833
293.023
293.292
293.71
294.293
294.922
295.321
295.482
295.532
295.54
295.55
295.62
295.884
296.389
297.15
298.125
299.222
300.314
301.289
302.33
303.875
306.303
288.589
289.382
290.019
290.487
290.843
291.147
291.424
291.68
291.915
292.128
292.319
292.49
292.645
292.792
292.951
293.18
293.566
294.201
295.005
295.686
296.052
296.204
296.233
296.206
296.181
296.243
296.563
297.227
298.183
299.293
300.368
301.336
302.401
303.982
306.371
288.591
289.383
290.02
290.488
290.844
291.147
291.425
291.681
291.916
292.128
292.319
292.489
292.644
292.79
292.935
293.103
293.367
293.9
294.8
295.818
296.562
296.968
297.167
297.251
297.318
297.469
297.812
298.411
299.219
300.107
300.978
301.832
302.864
304.41
306.557
288.582
289.358
289.994
290.472
290.835
291.139
291.416
291.671
291.904
292.114
292.303
292.472
292.627
292.773
292.92
293.077
293.257
293.492
293.987
294.977
296.112
297
297.543
297.92
298.223
298.543
298.962
299.522
300.19
300.884
301.565
302.279
303.213
304.655
306.64
288.575
289.346
289.988
290.471
290.835
291.142
291.421
291.678
291.911
292.121
292.308
292.475
292.629
292.775
292.922
293.078
293.256
293.458
293.725
294.174
295.134
296.324
297.338
297.957
298.449
298.918
299.429
299.996
300.602
301.217
301.83
302.486
303.344
304.699
306.641
288.567
289.335
289.985
290.48
290.856
291.173
291.46
291.722
291.958
292.168
292.355
292.524
292.682
292.838
293.002
293.18
293.361
293.533
293.717
293.982
294.446
295.303
296.389
297.496
298.363
298.923
299.465
300.042
300.644
301.25
301.856
302.501
303.345
304.694
306.62
288.56
289.329
289.99
290.496
290.879
291.203
291.495
291.761
292.001
292.216
292.409
292.588
292.763
292.949
293.162
293.404
293.648
293.845
293.971
294.06
294.206
294.513
295.075
295.914
296.925
298.023
298.98
299.81
300.55
301.215
301.839
302.49
303.33
304.621
306.568
288.577
289.376
290.045
290.541
290.919
291.243
291.537
291.805
292.047
292.266
292.466
292.657
292.861
293.099
293.395
293.743
294.06
294.255
294.335
294.363
294.399
294.497
294.732
295.14
295.784
296.646
297.627
298.632
299.606
300.52
301.352
302.134
303.028
304.383
306.489
288.587
289.405
290.084
290.58
290.958
291.284
291.58
291.85
292.095
292.317
292.524
292.735
292.971
293.274
293.685
294.166
294.536
294.687
294.701
294.683
294.675
294.697
294.777
294.979
295.319
295.844
296.577
297.481
298.489
299.521
300.509
301.46
302.502
303.995
306.351
288.59
289.416
290.092
290.584
290.961
291.287
291.583
291.854
292.098
292.32
292.528
292.742
292.996
293.346
293.844
294.45
294.896
295.077
295.089
295.053
295.023
295.011
295.023
295.082
295.271
295.618
296.144
296.892
297.844
298.939
300.065
301.111
302.226
303.816
306.284
288.609
289.445
290.111
290.594
290.968
291.293
291.588
291.858
292.103
292.324
292.533
292.751
293.016
293.388
293.938
294.66
295.361
295.66
295.693
295.635
295.565
295.51
295.468
295.445
295.469
295.642
296.119
296.837
297.792
298.911
300.049
301.095
302.212
303.815
306.288
288.613
289.447
290.111
290.593
290.962
291.279
291.566
291.828
292.063
292.272
292.46
292.644
292.87
293.212
293.776
294.628
295.585
296.242
296.441
296.421
296.338
296.256
296.18
296.109
296.075
296.152
296.458
297.115
298.067
299.164
300.236
301.227
302.348
304.006
306.409
288.613
289.435
290.075
290.538
290.898
291.212
291.499
291.763
292.003
292.218
292.407
292.578
292.757
293.008
293.451
294.231
295.368
296.457
297.044
297.267
297.287
297.253
297.219
297.199
297.258
297.468
297.873
298.5
299.298
300.165
301.016
301.88
302.954
304.53
306.631
288.604
289.398
290.023
290.482
290.836
291.14
291.419
291.676
291.911
292.123
292.312
292.475
292.615
292.754
292.966
293.399
294.247
295.525
296.77
297.516
297.856
298.03
298.159
298.298
298.5
298.809
299.244
299.796
300.414
301.049
301.703
302.43
303.391
304.819
306.712
288.575
289.321
289.924
290.382
290.738
291.04
291.315
291.568
291.801
292.012
292.202
292.374
292.526
292.654
292.753
292.856
293.083
293.678
294.86
296.29
297.39
298.037
298.382
298.678
298.991
299.358
299.791
300.285
300.818
301.369
301.949
302.602
303.477
304.825
306.692
288.548
289.255
289.837
290.294
290.65
290.952
291.225
291.477
291.71
291.921
292.11
292.279
292.43
292.568
292.696
292.808
292.898
292.999
293.23
293.889
295.145
296.541
297.707
298.476
298.965
299.366
299.805
300.281
300.788
301.321
301.894
302.544
303.403
304.721
306.623
288.526
289.197
289.764
290.223
290.584
290.888
291.161
291.413
291.644
291.854
292.042
292.21
292.36
292.495
292.617
292.732
292.842
292.947
293.051
293.191
293.471
294.24
295.512
296.909
298.124
299.073
299.727
300.241
300.75
301.261
301.791
302.391
303.187
304.473
306.5
288.498
289.128
289.68
290.145
290.516
290.827
291.104
291.363
291.6
291.815
292.007
292.178
292.332
292.47
292.596
292.714
292.826
292.934
293.039
293.148
293.27
293.417
293.74
294.531
295.686
296.91
298.159
299.299
300.279
301.109
301.731
302.35
303.141
304.417
306.46
288.474
289.08
289.626
290.092
290.467
290.783
291.067
291.326
291.562
291.777
291.971
292.146
292.303
292.446
292.578
292.702
292.821
292.937
293.051
293.16
293.26
293.353
293.45
293.593
293.905
294.488
295.372
296.508
297.782
299.097
300.41
301.54
302.587
303.975
306.303
288.468
289.07
289.616
290.082
290.457
290.775
291.07
291.337
291.579
291.798
291.994
292.172
292.335
292.487
292.633
292.776
292.92
293.065
293.206
293.337
293.454
293.553
293.636
293.706
293.788
293.927
294.201
294.695
295.481
296.57
297.931
299.411
300.814
302.586
305.7
288.464
289.066
289.626
290.104
290.486
290.806
291.093
291.358
291.602
291.826
292.031
292.219
292.394
292.564
292.736
292.918
293.11
293.3
293.472
293.617
293.736
293.833
293.923
294.008
294.085
294.154
294.238
294.405
294.701
295.228
296.188
297.731
299.522
301.743
305.327
288.465
289.08
289.645
290.12
290.5
290.825
291.121
291.395
291.648
291.88
292.096
292.297
292.492
292.699
292.934
293.2
293.477
293.73
293.926
294.062
294.158
294.238
294.318
294.404
294.5
294.602
294.692
294.741
294.796
295.069
295.828
297.426
299.339
301.653
305.324
288.483
289.127
289.703
290.163
290.531
290.852
291.146
291.42
291.674
291.911
292.137
292.36
292.598
292.863
293.192
293.607
294.014
294.321
294.478
294.543
294.586
294.64
294.716
294.822
294.962
295.128
295.308
295.478
295.627
295.824
296.605
298.299
300.039
302.084
305.565
288.495
289.148
289.715
290.166
290.532
290.853
291.147
291.421
291.675
291.912
292.138
292.364
292.607
292.9
293.288
293.806
294.377
294.703
294.809
294.838
294.863
294.917
295.01
295.157
295.373
295.668
296.03
296.445
296.919
297.552
298.563
299.93
301.298
303.069
306.014
288.496
289.15
289.712
290.16
290.516
290.83
291.118
291.385
291.634
291.866
292.087
292.307
292.546
292.842
293.25
293.815
294.441
294.897
295.102
295.156
295.173
295.198
295.253
295.365
295.572
295.902
296.368
296.959
297.672
298.549
299.644
300.792
301.97
303.612
306.218
288.501
289.155
289.704
290.126
290.467
290.77
291.052
291.317
291.566
291.8
292.021
292.24
292.479
292.783
293.219
293.862
294.663
295.365
295.672
295.735
295.723
295.697
295.678
295.692
295.786
296.022
296.452
297.098
297.944
298.969
300.089
301.127
302.225
303.831
306.302
288.506
289.16
289.697
290.109
290.445
290.745
291.024
291.286
291.532
291.762
291.98
292.19
292.412
292.691
293.109
293.771
294.699
295.617
296.221
296.451
296.474