/*--------------------------------*- C++ -*----------------------------------*\
| =========                 |                                                 |
| \\      /  F ield         | OpenFOAM: The Open Source CFD Toolbox           |
|  \\    /   O peration     | Version:  2.0.x                                 |
|   \\  /    A nd           | Web:      www.OpenFOAM.org                      |
|    \\/     M anipulation  |                                                 |
\*---------------------------------------------------------------------------*/
FoamFile
{
    version     2.0;
    format      ascii;
    class       volVectorField;
    location    "250";
    object      U;
}
// * * * * * * * * * * * * * * * * * * * * * * * * * * * * * * * * * * * * * //

dimensions      [0 1 -1 0 0 0 0];

internalField   nonuniform List<vector> 
78750
(
(-0.00145687 0.00686835 0.00453328)
(-0.00339191 0.00909081 0.00769119)
(-0.00449726 0.00574813 0.00914899)
(-0.00399169 -0.0004131 0.00993162)
(-0.00125643 -0.00907131 0.0105398)
(0.0033367 -0.0170032 0.010855)
(0.00955078 -0.0237787 0.0110098)
(0.0168207 -0.0286809 0.0111054)
(0.0251125 -0.0317521 0.0111268)
(0.0328991 -0.0314213 0.0111041)
(0.0421033 -0.0380879 0.0108707)
(0.0500887 -0.0402267 0.0107309)
(0.0578152 -0.0395797 0.0106364)
(0.0648025 -0.0372194 0.0105367)
(0.0708863 -0.0338692 0.0104268)
(0.0760501 -0.0297105 0.0102994)
(0.08018 -0.0260678 0.0101488)
(0.0834967 -0.0207103 0.00993221)
(0.0856738 -0.0176407 0.00977533)
(0.0871452 -0.010747 0.00977172)
(0.0873303 -0.00827157 0.0096074)
(0.0869441 -0.00441313 0.00946028)
(0.085484 -0.000472284 0.00932037)
(0.0832924 0.00335805 0.00918085)
(0.0800214 0.0074515 0.00904219)
(0.0759171 0.0113507 0.00891569)
(0.0707839 0.0159471 0.00879415)
(0.0652147 0.0191988 0.00872321)
(0.058602 0.0221848 0.00864946)
(0.0512999 0.0249647 0.00854982)
(0.0432357 0.0274619 0.00844772)
(0.0345478 0.029603 0.00831987)
(0.0250377 0.0311783 0.00805409)
(0.0153073 0.0340011 0.00719431)
(0.00448437 0.0311378 0.00386949)
(1.89319e-05 0.00436387 0.00348437)
(0.00250351 -0.00363418 0.00671022)
(0.00747519 -0.0205408 0.00799127)
(0.0147931 -0.0411842 0.00887562)
(0.0229628 -0.0596719 0.00927479)
(0.0316393 -0.0748123 0.00940003)
(0.0395408 -0.0880334 0.00947534)
(0.0471857 -0.0956228 0.00963838)
(0.0532853 -0.0996976 0.00981648)
(0.0601009 -0.0982754 0.0101977)
(0.0637715 -0.0932697 0.010333)
(0.0684561 -0.084886 0.0104953)
(0.0712189 -0.0760836 0.0106081)
(0.0734502 -0.0670782 0.0106632)
(0.0750869 -0.0579948 0.0106669)
(0.0761019 -0.0488936 0.0106373)
(0.0765549 -0.0398908 0.0105586)
(0.0764509 -0.0314509 0.0104005)
(0.0758915 -0.0230159 0.0101459)
(0.0749482 -0.0146227 0.00982131)
(0.073457 -0.00616214 0.00946438)
(0.0713932 0.00237861 0.00919106)
(0.0688748 0.0108931 0.00885166)
(0.0664504 0.01849 0.00852481)
(0.0623083 0.0292944 0.0082313)
(0.0589782 0.0357603 0.00798954)
(0.0539157 0.0429556 0.00770787)
(0.0501778 0.0490987 0.00764415)
(0.0442189 0.0572182 0.00769814)
(0.0383905 0.0645155 0.00783564)
(0.0319226 0.0712198 0.00802824)
(0.0249688 0.0772654 0.00831379)
(0.0173263 0.0842026 0.00849261)
(0.00912885 0.0936565 0.00733157)
(0.00224295 0.0840824 0.00415785)
(0.000350145 -0.0124005 0.00259254)
(0.0047217 -0.0504426 0.00505566)
(0.0115534 -0.087897 0.00629838)
(0.0190181 -0.115664 0.0070903)
(0.0250421 -0.132557 0.00766012)
(0.0307533 -0.137725 0.00839331)
(0.0337675 -0.136122 0.00877408)
(0.0368818 -0.131124 0.00925499)
(0.0386884 -0.123798 0.00969436)
(0.039664 -0.114353 0.00998008)
(0.0395942 -0.10564 0.0102148)
(0.039783 -0.0959674 0.0103379)
(0.039608 -0.0854278 0.0103947)
(0.0389847 -0.0742064 0.0103615)
(0.0378716 -0.0624842 0.0101949)
(0.0365431 -0.0507192 0.00987233)
(0.0350894 -0.0392424 0.00939767)
(0.0336095 -0.0281951 0.00878123)
(0.0322783 -0.0175598 0.00808428)
(0.0312489 -0.00636931 0.0074113)
(0.030139 0.00670192 0.00650824)
(0.029345 0.0142414 0.00590448)
(0.0284681 0.0242358 0.00534771)
(0.0274322 0.0350938 0.00510268)
(0.0262559 0.0465301 0.00506944)
(0.0245147 0.057164 0.00509986)
(0.0232834 0.065206 0.0051326)
(0.0203155 0.0757157 0.00504082)
(0.0182777 0.0860471 0.0051428)
(0.0155591 0.0958088 0.00543084)
(0.013251 0.105034 0.00603671)
(0.00975865 0.114509 0.00665351)
(0.00604717 0.12446 0.00678969)
(0.00217259 0.130234 0.0056902)
(-0.000254841 0.100872 0.00256289)
(0.000641093 -0.030678 0.0022678)
(0.00430731 -0.089098 0.00470644)
(0.00831416 -0.126458 0.00630267)
(0.0112456 -0.141898 0.00730133)
(0.0131926 -0.145372 0.00798463)
(0.0142224 -0.144684 0.00832783)
(0.0152053 -0.141838 0.00858526)
(0.0160228 -0.136915 0.00860869)
(0.0159794 -0.129707 0.00854301)
(0.0172855 -0.119549 0.0087649)
(0.0170809 -0.107639 0.00905757)
(0.0170162 -0.0948639 0.009316)
(0.0156143 -0.0807831 0.0093244)
(0.014525 -0.0659485 0.00910165)
(0.0131143 -0.0516966 0.00859467)
(0.0114928 -0.0389653 0.00773756)
(0.00989032 -0.0284789 0.00659309)
(0.00842122 -0.0201686 0.00541128)
(0.00730314 -0.013226 0.00436602)
(0.00655666 -0.00651916 0.00345879)
(0.00632701 0.000987868 0.00272065)
(0.0063824 0.00840644 0.00224047)
(0.00643042 0.0187252 0.00193947)
(0.00644284 0.0305755 0.00191861)
(0.00653684 0.0429294 0.002175)
(0.00624869 0.0547835 0.0026594)
(0.00667274 0.0657288 0.00338886)
(0.00598388 0.0762535 0.00389077)
(0.00562188 0.0863175 0.00429408)
(0.00528939 0.0962868 0.00468459)
(0.00415035 0.107129 0.00493634)
(0.00322781 0.119253 0.00515556)
(0.00173871 0.130919 0.00501723)
(0.000202416 0.134918 0.00400722)
(-0.000366186 0.0974702 0.00180105)
(0.000513729 -0.0442501 0.0017534)
(0.00235204 -0.108117 0.00399784)
(0.00379958 -0.141678 0.00544947)
(0.00484338 -0.155839 0.00636904)
(0.00567439 -0.160603 0.00701927)
(0.00636066 -0.160333 0.00747601)
(0.00699423 -0.156277 0.00791148)
(0.00731543 -0.149144 0.00833303)
(0.00751258 -0.139472 0.00869789)
(0.00748998 -0.127584 0.00891719)
(0.00711867 -0.113505 0.00896747)
(0.00662247 -0.0975137 0.0089045)
(0.00664695 -0.0815893 0.00886306)
(0.00586889 -0.066084 0.00869085)
(0.00530149 -0.0514223 0.00831859)
(0.00452279 -0.0381336 0.00771873)
(0.00373752 -0.0270499 0.00690184)
(0.00289536 -0.0185921 0.00596381)
(0.00195942 -0.0119694 0.00502705)
(0.0010845 -0.00593136 0.00415431)
(0.000370656 0.000837927 0.00339802)
(-0.00016529 0.00899534 0.00273755)
(-0.000438393 0.0188002 0.00223849)
(-0.000406299 0.0296934 0.00194891)
(-8.28003e-05 0.0409197 0.00187354)
(0.000382653 0.0519535 0.0019927)
(0.00096015 0.0627744 0.00226696)
(0.00144092 0.0735657 0.0025994)
(0.00187885 0.0844164 0.0029543)
(0.00212409 0.0958559 0.00330838)
(0.00200105 0.108716 0.00349847)
(0.00140382 0.123432 0.00371697)
(0.00053262 0.13578 0.00352318)
(-0.000362724 0.13755 0.00271621)
(-0.000429985 0.0937191 0.00109691)
(0.000253279 -0.050915 0.00164217)
(0.00105178 -0.117184 0.00405984)
(0.00174615 -0.149567 0.00563267)
(0.00223932 -0.161129 0.00650889)
(0.00252455 -0.163732 0.00705585)
(0.00267168 -0.162193 0.00745351)
(0.00272842 -0.157561 0.00779083)
(0.00274475 -0.150187 0.00808147)
(0.00270509 -0.140243 0.00835841)
(0.00261858 -0.128162 0.00864397)
(0.00248692 -0.11462 0.00891864)
(0.00238856 -0.0999817 0.0091184)
(0.00228456 -0.0842721 0.00916387)
(0.00225152 -0.0680951 0.00900594)
(0.00215007 -0.0524223 0.00859212)
(0.00209264 -0.038217 0.00788955)
(0.00179413 -0.0258398 0.0069566)
(0.00130301 -0.015787 0.00587001)
(0.000546449 -0.00809677 0.00477993)
(-0.000401693 -0.00201368 0.00393415)
(-0.00136084 0.00332021 0.00335579)
(-0.00212207 0.00893509 0.00299844)
(-0.00254814 0.0156185 0.00279977)
(-0.00249852 0.0237901 0.00269622)
(-0.00199056 0.0332772 0.00263194)
(-0.00118081 0.0435946 0.00257868)
(-0.000220132 0.0543763 0.00253035)
(0.000738847 0.0655992 0.00249245)
(0.00153438 0.077606 0.00249323)
(0.00202451 0.0911571 0.00259094)
(0.00208278 0.107178 0.00274984)
(0.00160803 0.124521 0.00255905)
(0.00087276 0.137694 0.00223833)
(2.2412e-05 0.138371 0.00162008)
(-0.00022225 0.0911715 0.000539525)
(0.000110901 -0.0546548 0.0015934)
(0.000447941 -0.122827 0.00398483)
(0.00065565 -0.155791 0.00549021)
(0.000789438 -0.16813 0.00637516)
(0.000874979 -0.171371 0.006957)
(0.000930372 -0.1701 0.00741631)
(0.000952819 -0.165549 0.00784297)
(0.0009488 -0.158125 0.00825455)
(0.000937285 -0.148107 0.00865275)
(0.000940981 -0.135818 0.00901941)
(0.000968378 -0.121741 0.00933136)
(0.00100994 -0.106563 0.00957031)
(0.00108581 -0.0909719 0.00972154)
(0.00122976 -0.0753487 0.00975435)
(0.00146473 -0.0598834 0.00961238)
(0.00173131 -0.0448338 0.00921795)
(0.0019663 -0.0306972 0.00849927)
(0.00207426 -0.0181396 0.00744178)
(0.00195632 -0.00778367 0.00612028)
(0.00152156 0.000383669 0.00485775)
(0.000887584 0.00626894 0.00386638)
(0.000173578 0.0110817 0.00313069)
(-0.000441774 0.0155711 0.00270511)
(-0.000827871 0.0205732 0.00249245)
(-0.000915123 0.0268703 0.00243306)
(-0.000487623 0.0349827 0.00250073)
(0.000224561 0.0450282 0.00261567)
(0.00108719 0.0569522 0.00270062)
(0.00190314 0.0708553 0.00271593)
(0.00244929 0.0871583 0.00266867)
(0.00252632 0.106281 0.00247033)
(0.00203143 0.126763 0.00203287)
(0.00126317 0.141127 0.00155126)
(0.000433926 0.141073 0.00101469)
(-8.92863e-05 0.0914492 0.000364963)
(3.17345e-05 -0.0562415 0.00165132)
(0.00011529 -0.124943 0.00406161)
(0.000118718 -0.157435 0.00548005)
(8.96491e-05 -0.169234 0.00625562)
(2.12586e-05 -0.172214 0.00676079)
(-7.69865e-05 -0.17085 0.00718292)
(-0.000181219 -0.166353 0.00759389)
(-0.000267722 -0.159178 0.00803016)
(-0.000320833 -0.149666 0.0085107)
(-0.00031889 -0.138205 0.00903071)
(-0.000239346 -0.125211 0.00955788)
(-6.75039e-05 -0.111081 0.010039)
(0.000187529 -0.0962479 0.010418)
(0.000512226 -0.0811747 0.010653)
(0.000907276 -0.0662547 0.0107136)
(0.00137774 -0.0517459 0.0105664)
(0.00191865 -0.0378274 0.0101613)
(0.00249605 -0.0247298 0.00943265)
(0.0030256 -0.0127824 0.00831649)
(0.00341738 -0.00211921 0.00700876)
(0.00350048 0.00545833 0.00585739)
(0.00332435 0.011775 0.00473366)
(0.00294646 0.0167866 0.00373567)
(0.00240584 0.0211739 0.00293306)
(0.0020511 0.0256541 0.00246191)
(0.00176332 0.0312281 0.00214197)
(0.00171207 0.0389296 0.00196761)
(0.0020226 0.0496431 0.00199771)
(0.00245299 0.0640329 0.00213566)
(0.00276065 0.0826355 0.00226225)
(0.00282376 0.10546 0.002137)
(0.00238472 0.128984 0.00182771)
(0.00174407 0.144696 0.00141105)
(0.00092606 0.144432 0.000977292)
(0.000166522 0.0931831 0.000434468)
(1.19298e-05 -0.0573387 0.00172203)
(2.56405e-05 -0.127384 0.0041175)
(-4.98659e-06 -0.161148 0.00544079)
(-1.05569e-05 -0.173917 0.00613581)
(-2.56552e-05 -0.177528 0.0065755)
(-4.47652e-05 -0.176708 0.00694853)
(-5.8998e-05 -0.172773 0.00732824)
(-6.0169e-05 -0.16619 0.00774537)
(-3.05282e-05 -0.157256 0.0082156)
(3.82448e-05 -0.146309 0.00873963)
(0.000151785 -0.133786 0.00930351)
(0.000322928 -0.120172 0.00987953)
(0.000562314 -0.105911 0.010427)
(0.000875555 -0.0913953 0.0109011)
(0.001261 -0.0769401 0.0112583)
(0.00171927 -0.0627881 0.0114582)
(0.00225554 -0.0491149 0.0114588)
(0.00286415 -0.0360439 0.0112057)
(0.00352589 -0.0236808 0.01062)
(0.00422389 -0.012102 0.00959167)
(0.0048921 -0.00104031 0.00826184)
(0.00527612 0.00712849 0.00700874)
(0.00547368 0.0147421 0.00562141)
(0.00549927 0.0206164 0.00450571)
(0.00519927 0.0257552 0.00347212)
(0.00483241 0.0310479 0.00264998)
(0.00451542 0.0376369 0.0019815)
(0.00427332 0.0469751 0.0015918)
(0.00412045 0.0607842 0.00147913)
(0.0040641 0.0804841 0.00153251)
(0.00384714 0.105445 0.00163011)
(0.00336254 0.131062 0.00159826)
(0.00237615 0.149133 0.00131341)
(0.00106189 0.149471 0.000961418)
(3.62654e-05 0.0962824 0.000516742)
(-2.84464e-06 -0.0581112 0.00185932)
(-5.29591e-05 -0.128561 0.00426543)
(-0.000159566 -0.162332 0.00548598)
(-0.00023417 -0.175154 0.0060828)
(-0.000308758 -0.178851 0.00644753)
(-0.000394616 -0.178159 0.00676518)
(-0.000477836 -0.174396 0.00710611)
(-0.000537188 -0.168078 0.00750468)
(-0.000557869 -0.159559 0.00797953)
(-0.000527397 -0.149204 0.00853313)
(-0.000428554 -0.137411 0.00914866)
(-0.000254361 -0.124593 0.00979269)
(-2.64101e-06 -0.111147 0.010423)
(0.000321935 -0.0974415 0.0109976)
(0.000710641 -0.083789 0.0114821)
(0.00116253 -0.07042 0.0118498)
(0.00167247 -0.0574914 0.0120768)
(0.0022464 -0.0451021 0.0121352)
(0.00288548 -0.0333135 0.0119816)
(0.00357554 -0.0221723 0.0115444)
(0.0043419 -0.0116766 0.0107076)
(0.00515038 -0.00132125 0.00959535)
(0.00575478 0.00680007 0.00847418)
(0.0062913 0.0155762 0.00691405)
(0.0066033 0.0231881 0.00535484)
(0.00662709 0.0299497 0.00396395)
(0.00650692 0.0370618 0.00287169)
(0.00624945 0.046431 0.00207756)
(0.00597646 0.0603445 0.00143202)
(0.00541263 0.0803556 0.000941812)
(0.00473772 0.106442 0.000733644)
(0.00346423 0.136502 0.000493173)
(0.00195438 0.156901 0.00033592)
(0.000476203 0.156745 0.000226429)
(-0.000367895 0.0992508 0.000212491)
(-1.97957e-05 -0.0585791 0.00195182)
(-0.000159733 -0.129967 0.00428684)
(-0.000321494 -0.164824 0.00538391)
(-0.000395052 -0.178532 0.00589454)
(-0.000428982 -0.182835 0.00619423)
(-0.000450114 -0.182706 0.0064571)
(-0.000460456 -0.17956 0.00675072)
(-0.000446915 -0.173951 0.00710976)
(-0.000397311 -0.166215 0.00755582)
(-0.000301973 -0.15667 0.00809946)
(-0.000154966 -0.14567 0.00873636)
(4.70118e-05 -0.133598 0.00944572)
(0.000305386 -0.120823 0.0101918)
(0.000618801 -0.107682 0.010928)
(0.000981897 -0.094487 0.0116079)
(0.00138919 -0.0814901 0.0121934)
(0.00183689 -0.0688699 0.012658)
(0.00231216 -0.0567302 0.0129847)
(0.00282031 -0.045116 0.0131556)
(0.00336297 -0.0340429 0.0131315)
(0.00391777 -0.02353 0.0128411)
(0.00450971 -0.0135204 0.0121692)
(0.00510605 -0.00316305 0.0112213)
(0.00554049 0.00560152 0.0102007)
(0.00594434 0.0148619 0.00885703)
(0.00617778 0.0247095 0.00718691)
(0.00606054 0.0346563 0.00542351)
(0.00570423 0.04625 0.00366939)
(0.00520365 0.0618399 0.00192336)
(0.0044706 0.0842412 0.000825555)
(0.00337701 0.114259 0.000105254)
(0.0019566 0.145536 -0.000330403)
(0.000935358 0.164384 -0.000478028)
(0.000161569 0.161904 -0.000444705)
(-0.000258274 0.100051 -7.06421e-05)
(-2.28668e-05 -0.0586087 0.00205071)
(-0.000186354 -0.130137 0.00424086)
(-0.00034648 -0.165477 0.00522054)
(-0.000378849 -0.179711 0.00566179)
(-0.000367953 -0.184406 0.00590905)
(-0.000343491 -0.184583 0.00611596)
(-0.000313712 -0.181745 0.00634997)
(-0.000269634 -0.176475 0.00664534)
(-0.00020287 -0.169135 0.00702721)
(-0.000105502 -0.16006 0.0075111)
(2.9511e-05 -0.149609 0.00809953)
(0.000206723 -0.138154 0.008782)
(0.000428031 -0.126049 0.00953549)
(0.000693212 -0.1136 0.0103263)
(0.000998977 -0.101072 0.0111134)
(0.00133839 -0.0886932 0.0118561)
(0.0017035 -0.0766365 0.0125201)
(0.00209377 -0.0650027 0.0130819)
(0.00249792 -0.0538143 0.013527)
(0.00291656 -0.0430341 0.013842)
(0.00335003 -0.0326021 0.013991)
(0.00377318 -0.0224742 0.013902)
(0.00420988 -0.0125363 0.0134524)
(0.00464312 -0.00178543 0.0127133)
(0.00488479 0.00775239 0.0118505)
(0.00509229 0.0195643 0.0104944)
(0.00509112 0.0322632 0.00880665)
(0.00477327 0.0459749 0.00708494)
(0.0040226 0.0639079 0.00539761)
(0.00345477 0.0882285 0.00367079)
(0.00268411 0.118391 0.00209091)
(0.00225763 0.14928 0.00114728)
(0.00166834 0.167161 0.000668052)
(0.000908305 0.163822 0.000459495)
(0.00016921 0.100423 0.000354606)
(-4.28711e-05 -0.0586656 0.00207756)
(-0.000217755 -0.130845 0.00405915)
(-0.000355987 -0.167484 0.0048592)
(-0.000336104 -0.182752 0.00525474)
(-0.000257852 -0.188154 0.00547794)
(-0.000154647 -0.188866 0.00565645)
(-4.30913e-05 -0.186568 0.00585424)
(8.01954e-05 -0.181886 0.00610587)
(0.000221594 -0.175188 0.0064368)
(0.000387089 -0.166777 0.00686617)
(0.000580758 -0.156976 0.00740396)
(0.00080616 -0.146127 0.00804846)
(0.0010655 -0.134567 0.00878582)
(0.00135998 -0.122598 0.00959129)
(0.00168903 -0.110474 0.0104307)
(0.00204927 -0.0984171 0.0112656)
(0.00243456 -0.0866083 0.012059)
(0.00283833 -0.0751739 0.0127808)
(0.00326285 -0.0641714 0.0134126)
(0.00369551 -0.0535741 0.013945)
(0.00413937 -0.0432822 0.0143659)
(0.00460596 -0.0331484 0.0146448)
(0.00506885 -0.0230063 0.0147131)
(0.00555245 -0.0125972 0.0144354)
(0.00605385 -0.000633524 0.0138265)
(0.00633555 0.0100942 0.0130592)
(0.00661214 0.025078 0.011629)
(0.00662452 0.0426998 0.00941168)
(0.00607609 0.0626348 0.00715852)
(0.00549556 0.0877201 0.00525123)
(0.00510161 0.118553 0.00391208)
(0.0041762 0.150395 0.00284963)
(0.00288482 0.171759 0.00219365)
(0.00159089 0.169916 0.00179705)
(0.000310359 0.105122 0.00114647)
(-2.66668e-05 -0.0585373 0.00204513)
(-0.000215251 -0.13087 0.00377934)
(-0.000408506 -0.16801 0.00417211)
(-0.000372257 -0.183996 0.0046288)
(-0.00024114 -0.189955 0.00487311)
(-7.56993e-05 -0.191079 0.00505789)
(0.000101367 -0.189139 0.00524392)
(0.00028985 -0.184804 0.00546622)
(0.000492823 -0.178472 0.00575273)
(0.000714263 -0.170475 0.00612633)
(0.000956952 -0.161153 0.00660204)
(0.00122348 -0.150854 0.00718518)
(0.00151525 -0.139912 0.00787068)
(0.00183294 -0.128613 0.00864393)
(0.00217721 -0.117187 0.00948196)
(0.00254731 -0.105815 0.010354)
(0.00294041 -0.0946494 0.0112267)
(0.00335167 -0.0837977 0.0120678)
(0.00377479 -0.0733173 0.0128513)
(0.00421194 -0.0632037 0.0135606)
(0.00465961 -0.05338 0.0141858)
(0.00511517 -0.0436945 0.0147101)
(0.00559195 -0.0339182 0.0150941)
(0.00608306 -0.0237354 0.0152585)
(0.00667948 -0.012589 0.0150209)
(0.00730754 0.00158416 0.0142734)
(0.00768316 0.0149064 0.0132137)
(0.00806662 0.0351469 0.0111284)
(0.00802722 0.0592286 0.00837572)
(0.00685806 0.0880516 0.00530656)
(0.00551819 0.122472 0.00306959)
(0.00360565 0.159209 0.001806)
(0.00189616 0.181707 0.00155597)
(0.00040648 0.178459 0.0013476)
(-0.000335228 0.108022 0.000857725)
(-6.96363e-05 -0.0580938 0.00190584)
(-0.000404291 -0.130426 0.00312928)
(-0.000552706 -0.168725 0.00346679)
(-0.000474436 -0.186292 0.00373599)
(-0.000249033 -0.193187 0.0039471)
(1.60051e-05 -0.194972 0.0041351)
(0.000295817 -0.193632 0.0043205)
(0.000585852 -0.189893 0.0045312)
(0.00088305 -0.184167 0.00479499)
(0.00118769 -0.176771 0.00513714)
(0.0014973 -0.168015 0.00557691)
(0.00181008 -0.158223 0.00612512)
(0.00212369 -0.147717 0.00678309)
(0.00243572 -0.136791 0.00754326)
(0.00274439 -0.125692 0.00839062)
(0.00304824 -0.114612 0.00930312)
(0.00334447 -0.103701 0.0102532)
(0.00362843 -0.0930737 0.0112123)
(0.00389438 -0.0827947 0.012155)
(0.00413572 -0.0728661 0.0130641)
(0.00434738 -0.0632181 0.0139326)
(0.00452686 -0.0537038 0.0147562)
(0.00466376 -0.0441264 0.0155198)
(0.00476131 -0.0342968 0.0161647)
(0.00480541 -0.0239093 0.0165551)
(0.00492934 -0.010557 0.0165351)
(0.00493388 0.00766983 0.0156154)
(0.00489454 0.0283068 0.0136784)
(0.00484331 0.0584731 0.0104022)
(0.00392622 0.093236 0.00758717)
(0.00244416 0.132493 0.00447101)
(0.00110271 0.1692 0.00195821)
(0.000213984 0.187547 0.000295754)
(-0.000218444 0.180639 6.80605e-05)
(-0.000236528 0.106721 0.000570063)
(-9.67419e-05 -0.0567029 0.001473)
(-0.000421465 -0.128838 0.00199762)
(-0.000542127 -0.168699 0.00241155)
(-0.000322662 -0.18735 0.00252445)
(1.84423e-05 -0.195047 0.00277843)
(0.000425767 -0.197363 0.00299472)
(0.000837734 -0.196427 0.00317047)
(0.00124949 -0.193017 0.00334076)
(0.00164748 -0.187581 0.00353943)
(0.00203075 -0.180459 0.00379766)
(0.00239434 -0.17198 0.00414157)
(0.00273679 -0.162481 0.00459)
(0.00305699 -0.152284 0.00515314)
(0.00335372 -0.14168 0.00583241)
(0.00362556 -0.130905 0.00662128)
(0.00387103 -0.120134 0.00750677)
(0.00408699 -0.109491 0.00846892)
(0.00426767 -0.0990664 0.00948408)
(0.004404 -0.0889074 0.0105287)
(0.00448482 -0.0790091 0.0115835)
(0.00449739 -0.0693112 0.0126381)
(0.00443112 -0.0596862 0.0136954)
(0.00428213 -0.0498952 0.0147738)
(0.00402858 -0.0395457 0.0158981)
(0.00362238 -0.0281139 0.0170649)
(0.00302999 -0.0148956 0.0181144)
(0.00227055 0.00294416 0.018658)
(0.00172327 0.0238347 0.0180369)
(0.00172864 0.0550115 0.0151438)
(0.00233117 0.09279 0.0103755)
(0.00252575 0.133016 0.00682762)
(0.00215599 0.169866 0.00381842)
(0.00147265 0.187863 0.00217949)
(0.00118758 0.180921 0.0018658)
(0.000455644 0.106251 0.00164508)
(-0.000111766 -0.0553783 0.000942475)
(-0.000284318 -0.12784 0.000695094)
(-0.000208196 -0.169354 0.000791375)
(0.000221216 -0.189798 0.0011395)
(0.000780089 -0.198532 0.00147196)
(0.00139699 -0.201475 0.00172525)
(0.00200522 -0.201005 0.00189925)
(0.00261763 -0.19799 0.00203782)
(0.00320502 -0.192905 0.00217864)
(0.00377088 -0.186101 0.00235366)
(0.0043068 -0.177906 0.00258925)
(0.00481063 -0.168648 0.00290576)
(0.00528101 -0.158647 0.00331729)
(0.00571723 -0.148195 0.00383214)
(0.00611933 -0.137535 0.00445312)
(0.00648807 -0.12685 0.00517758)
(0.00682386 -0.116263 0.00599735)
(0.00712502 -0.105845 0.00689755)
(0.00738691 -0.0956319 0.00785931)
(0.00760097 -0.085605 0.0088626)
(0.00775504 -0.0756969 0.00989026)
(0.0078343 -0.0658019 0.0109303)
(0.00783511 -0.0557493 0.0119852)
(0.00777602 -0.0452144 0.0130904)
(0.00763909 -0.0335646 0.0143311)
(0.00738111 -0.0198496 0.0157419)
(0.00673346 -0.0017147 0.0172845)
(0.00600272 0.0146904 0.0182647)
(0.00530969 0.0417703 0.018587)
(0.00557073 0.0785814 0.0164897)
(0.00623543 0.123881 0.0122537)
(0.0063766 0.168169 0.00855344)
(0.00543147 0.190469 0.00604929)
(0.00308766 0.186338 0.00479216)
(0.000646465 0.111895 0.00319476)
(-3.48094e-05 -0.054201 0.000259788)
(-7.25762e-05 -0.127353 -0.000214469)
(0.000352773 -0.170507 -0.000540848)
(0.00107031 -0.192323 -0.000239847)
(0.00192412 -0.201812 0.00010983)
(0.00281677 -0.205153 0.000363391)
(0.00366543 -0.20495 0.000501174)
(0.00451381 -0.202167 0.000568562)
(0.0053077 -0.197258 0.000612317)
(0.00606054 -0.190599 0.000668241)
(0.00676627 -0.182549 0.000764234)
(0.00742674 -0.173451 0.000920561)
(0.00804438 -0.163634 0.00115127)
(0.00862306 -0.153392 0.00146556)
(0.0091672 -0.142966 0.00186892)
(0.00968111 -0.132538 0.00236335)
(0.0101679 -0.122223 0.00294683)
(0.0106299 -0.112076 0.00361206)
(0.0110676 -0.102104 0.00434566)
(0.0114719 -0.0922659 0.00513203)
(0.0118308 -0.0824689 0.00595324)
(0.0121257 -0.0726051 0.00678554)
(0.0123135 -0.0625965 0.00759628)
(0.0124617 -0.0523268 0.00832524)
(0.0124213 -0.0406741 0.00942186)
(0.0123742 -0.0265991 0.0108008)
(0.0123418 -0.00660431 0.0125509)
(0.0119636 0.0101404 0.013706)
(0.0109302 0.0342135 0.0147626)
(0.0100545 0.0718917 0.0148907)
(0.00912878 0.120921 0.0129649)
(0.00732039 0.170308 0.00989154)
(0.00491442 0.203063 0.00789334)
(0.00236842 0.201648 0.00616877)
(0.000305077 0.122794 0.00354144)
(-3.2906e-05 -0.0536569 -0.000876926)
(0.000217896 -0.128375 -0.00211632)
(0.00101266 -0.174002 -0.00191819)
(0.00208846 -0.197337 -0.00134152)
(0.00322179 -0.207441 -0.000919395)
(0.00438546 -0.210977 -0.000675687)
(0.00546486 -0.21081 -0.000588321)
(0.00653945 -0.208027 -0.000601598)
(0.00752871 -0.203058 -0.000654535)
(0.00845139 -0.196371 -0.000708889)
(0.00930346 -0.188324 -0.000742308)
(0.0100904 -0.179255 -0.000738778)
(0.0108203 -0.169479 -0.00068701)
(0.0115037 -0.159298 -0.000580202)
(0.012148 -0.148949 -0.000414029)
(0.0127569 -0.138609 -0.000186207)
(0.0133323 -0.12839 0.000102377)
(0.0138714 -0.118342 0.000446462)
(0.0143702 -0.108449 0.000835363)
(0.0148174 -0.0986245 0.00125582)
(0.0151748 -0.0887117 0.00170582)
(0.0153653 -0.0785077 0.00219866)
(0.0154964 -0.0677649 0.00274507)
(0.015175 -0.0560828 0.00430327)
(0.0147596 -0.0439823 0.00579858)
(0.0141734 -0.0307407 0.00732847)
(0.0136671 -0.0139253 0.00896343)
(0.0131714 0.0110823 0.0107994)
(0.0125282 0.0342037 0.0116455)
(0.0107373 0.0776855 0.0111035)
(0.00780134 0.132295 0.00860332)
(0.0040423 0.18679 0.00544728)
(0.00135806 0.216071 0.00396685)
(-0.000412076 0.209884 0.00323654)
(-0.000875573 0.123906 0.00197586)
(-1.70496e-05 -0.0534985 -0.00159495)
(0.000583765 -0.130812 -0.00311752)
(0.00189775 -0.178805 -0.00270849)
(0.00336922 -0.203107 -0.00203164)
(0.00477183 -0.213397 -0.00162511)
(0.00619698 -0.216816 -0.00144821)
(0.00747808 -0.216479 -0.00144913)
(0.00879472 -0.213361 -0.00157508)
(0.00997246 -0.208049 -0.00173954)
(0.0110874 -0.201008 -0.001907)
(0.0121184 -0.192659 -0.00205754)
(0.0130736 -0.183395 -0.00218172)
(0.0139641 -0.17355 -0.00227614)
(0.0148028 -0.16339 -0.0023396)
(0.0156012 -0.153113 -0.00237213)
(0.0163673 -0.142851 -0.00237571)
(0.0171011 -0.13267 -0.00235691)
(0.0177915 -0.122596 -0.00233253)
(0.0184319 -0.11257 -0.00232943)
(0.0189723 -0.10237 -0.00239353)
(0.01923 -0.0917196 -0.00256288)
(0.0195494 -0.0802446 -0.00282545)
(0.0189081 -0.0681964 -0.00213459)
(0.0182518 -0.0553214 -0.00183274)
(0.0169036 -0.0415196 -0.000976459)
(0.0152806 -0.0260256 0.00072568)
(0.0128994 -0.0073342 0.0042581)
(0.0112287 0.0113001 0.00702391)
(0.00966769 0.0402901 0.00975944)
(0.00697941 0.0906011 0.00977575)
(0.00430178 0.149192 0.00697568)
(0.00191908 0.19954 0.00412059)
(0.000497309 0.221673 0.00266195)
(-0.000216306 0.211444 0.00189228)
(-0.000258135 0.122941 0.000988137)
(5.1648e-05 -0.0546636 -0.00271832)
(0.00123055 -0.136699 -0.00374581)
(0.00304516 -0.187199 -0.00273238)
(0.0048335 -0.211867 -0.00195212)
(0.00645618 -0.221884 -0.0016436)
(0.00807922 -0.224878 -0.00160864)
(0.00950691 -0.224165 -0.00172897)
(0.0110039 -0.220598 -0.00197706)
(0.0123534 -0.214836 -0.0022454)
(0.013664 -0.207385 -0.00250589)
(0.0149191 -0.198678 -0.00274842)
(0.0161301 -0.189117 -0.00297203)
(0.0173091 -0.179052 -0.00318033)
(0.0184706 -0.168759 -0.00337758)
(0.0196288 -0.158423 -0.00356937)
(0.0207941 -0.148134 -0.00376348)
(0.0219674 -0.137888 -0.00397423)
(0.0231255 -0.127625 -0.00424676)
(0.024283 -0.117197 -0.00464551)
(0.025137 -0.105869 -0.00532582)
(0.0261415 -0.0930995 -0.0064181)
(0.0256751 -0.078882 -0.00695613)
(0.0253868 -0.062994 -0.00806967)
(0.0238757 -0.0461176 -0.00878312)
(0.0218613 -0.0283723 -0.0088471)
(0.0189775 -0.0108794 -0.00674171)
(0.0154117 0.00947108 -0.00250373)
(0.0127514 0.0240812 0.00141696)
(0.00977203 0.0519913 0.00689602)
(0.00808273 0.0980238 0.0100935)
(0.00604887 0.155598 0.00837504)
(0.00396219 0.2047 0.00425971)
(0.00315741 0.224906 0.00232699)
(0.00165448 0.214593 0.00170738)
(2.42047e-05 0.124349 0.000721322)
(0.000216523 -0.0579282 -0.00324658)
(0.00206555 -0.145884 -0.00332072)
(0.0042438 -0.197512 -0.00187743)
(0.00616319 -0.221269 -0.0011619)
(0.00780841 -0.230423 -0.00100626)
(0.0094489 -0.232736 -0.00111709)
(0.0108879 -0.231529 -0.00133002)
(0.012423 -0.227448 -0.0016406)
(0.0138366 -0.221266 -0.00193308)
(0.0152548 -0.213518 -0.0021944)
(0.0166701 -0.204651 -0.00242728)
(0.0181026 -0.195066 -0.00264151)
(0.0195709 -0.185113 -0.00284819)
(0.0210941 -0.175058 -0.00305985)
(0.0226867 -0.165046 -0.00329173)
(0.0243718 -0.155098 -0.00355787)
(0.0261497 -0.145062 -0.00387237)
(0.0280182 -0.134671 -0.00441127)
(0.0296161 -0.124048 -0.00532415)
(0.0309512 -0.110276 -0.0072001)
(0.0313293 -0.0930547 -0.00941015)
(0.0314323 -0.0735917 -0.012446)
(0.0302888 -0.0525428 -0.0154066)
(0.0281641 -0.0301486 -0.0179969)
(0.0257656 -0.00872435 -0.0186556)
(0.0228436 0.0146197 -0.0174696)
(0.0204676 0.0279582 -0.015803)
(0.0169737 0.0446606 -0.0121063)
(0.0130299 0.0655119 -0.0058031)
(0.00990681 0.101005 0.00164459)
(0.0082643 0.156648 0.00488598)
(0.00690196 0.209297 0.00395589)
(0.00458233 0.235567 0.00176459)
(0.00275236 0.227917 0.00024512)
(0.000528839 0.135598 -0.000324992)
(0.000477311 -0.0649647 -0.00295899)
(0.00275002 -0.159175 -0.00152418)
(0.00489855 -0.210054 0.000100872)
(0.00662192 -0.231818 0.00052101)
(0.008037 -0.239778 0.000417199)
(0.00942852 -0.241423 0.000143558)
(0.0106608 -0.239816 -0.000117657)
(0.0119718 -0.235452 -0.000381651)
(0.0131955 -0.229143 -0.000572218)
(0.0144352 -0.221431 -0.000696836)
(0.0156978 -0.212764 -0.000757581)
(0.0170101 -0.203518 -0.000766276)
(0.0184033 -0.194029 -0.000743374)
(0.0198897 -0.184561 -0.000711259)
(0.0214954 -0.175202 -0.000690609)
(0.0233394 -0.165941 -0.000659627)
(0.024878 -0.156804 -0.000562522)
(0.0263067 -0.145863 -0.0015467)
(0.0281636 -0.130104 -0.00454152)
(0.0287432 -0.111102 -0.0086249)
(0.028125 -0.0881716 -0.0145382)
(0.0260246 -0.0612834 -0.0213575)
(0.0230708 -0.0319765 -0.0277002)
(0.0201223 -0.00307635 -0.0315593)
(0.0180481 0.0140509 -0.0327161)
(0.0157368 0.0345217 -0.0322894)
(0.0137591 0.0541468 -0.0297084)
(0.0114272 0.0733175 -0.0248794)
(0.00845579 0.0944915 -0.0170199)
(0.0052029 0.124006 -0.00596691)
(0.00363627 0.169618 0.00320308)
(0.00300021 0.220936 0.00496658)
(0.00187022 0.246814 0.00271003)
(0.00102268 0.239073 0.00102971)
(-0.000147112 0.141827 -0.00317801)
(0.000485054 -0.0733895 -0.00149415)
(0.00236132 -0.17176 0.00132101)
(0.00385138 -0.220122 0.00273505)
(0.00494034 -0.239433 0.00285409)
(0.0058268 -0.246098 0.00259815)
(0.00672737 -0.247062 0.00230383)
(0.00751649 -0.245018 0.00214641)
(0.00833516 -0.240361 0.00208089)
(0.00905604 -0.233853 0.00210928)
(0.00980285 -0.226033 0.00218382)
(0.0105951 -0.217481 0.00234543)
(0.0112937 -0.208672 0.00266796)
(0.0119711 -0.199806 0.00310248)
(0.0126861 -0.191025 0.00359185)
(0.0134413 -0.182318 0.00411478)
(0.0139607 -0.173241 0.00446433)
(0.014607 -0.162077 0.0038614)
(0.0158328 -0.148188 0.00164991)
(0.0149833 -0.128939 -0.00134094)
(0.014349 -0.0985385 -0.00937163)
(0.0116846 -0.0592215 -0.022201)
(0.00785122 -0.0199063 -0.0347575)
(0.00508595 0.00684052 -0.0414844)
(0.00337312 0.0287839 -0.0454358)
(0.00221847 0.0478064 -0.0473399)
(0.00152611 0.0647093 -0.0470776)
(0.00121091 0.0803573 -0.0447421)
(0.00109283 0.0959055 -0.0400472)
(0.000772545 0.113368 -0.0321622)
(-1.85846e-05 0.137167 -0.020211)
(-1.26546e-05 0.174353 -0.00684434)
(0.000427013 0.222312 0.000316658)
(0.000553439 0.250325 0.00179042)
(-0.000226022 0.241167 -0.00270837)
(-8.37038e-05 0.140408 -0.00457736)
(0.000549279 -0.0802123 0.00010766)
(0.00164595 -0.180482 0.00360449)
(0.00203622 -0.22665 0.00453119)
(0.00236221 -0.244546 0.00434098)
(0.00263458 -0.250806 0.00408863)
(0.00291587 -0.251662 0.00394883)
(0.00321131 -0.249188 0.00392453)
(0.00346938 -0.244233 0.00407454)
(0.00374667 -0.237435 0.00436779)
(0.00395898 -0.229326 0.0047775)
(0.00400309 -0.220366 0.00521705)
(0.00408819 -0.211037 0.00562608)
(0.0041019 -0.20182 0.00631563)
(0.0040864 -0.192832 0.0073156)
(0.00373059 -0.183829 0.00827083)