/*--------------------------------*- C++ -*----------------------------------*\
| =========                 |                                                 |
| \\      /  F ield         | OpenFOAM: The Open Source CFD Toolbox           |
|  \\    /   O peration     | Version:  2.0.x                                 |
|   \\  /    A nd           | Web:      www.OpenFOAM.org                      |
|    \\/     M anipulation  |                                                 |
\*---------------------------------------------------------------------------*/
FoamFile
{
    version     2.0;
    format      ascii;
    class       volScalarField;
    location    "350";
    object      k;
}
// * * * * * * * * * * * * * * * * * * * * * * * * * * * * * * * * * * * * * //

dimensions      [0 2 -2 0 0 0 0];

internalField   nonuniform List<scalar> 
78750
(
2.96793e-05
0.000188199
0.000264362
0.00030383
0.000333601
0.000364296
0.000392176
0.000417823
0.000441212
0.000462149
0.000480058
0.000493867
0.000504802
0.000513818
0.000520701
0.00052506
0.000534779
0.000540608
0.000545328
0.000545089
0.000542976
0.000539662
0.000535066
0.00052955
0.000522741
0.000515824
0.000508687
0.000501147
0.000493062
0.00048423
0.00047422
0.000462477
0.000445365
0.000377834
7.67862e-05
1.67092e-05
9.49881e-05
0.00015561
0.000220852
0.000293918
0.000364131
0.000430363
0.000487966
0.000539215
0.000584865
0.000620701
0.000645377
0.00066516
0.000678402
0.000688437
0.000688572
0.000681224
0.00066994
0.000658446
0.000646871
0.000635362
0.000624089
0.000613142
0.000602912
0.000593008
0.000581069
0.00056811
0.000554482
0.00054012
0.000524489
0.000507309
0.000487947
0.000458049
0.00038525
0.000242575
9.77644e-06
0.000122781
0.000250452
0.000376403
0.000489834
0.000582579
0.000651125
0.000699799
0.000730519
0.000745204
0.000751188
0.000751814
0.000746278
0.000735164
0.000719588
0.000702891
0.000684727
0.000666188
0.000646393
0.000625728
0.000605184
0.000586503
0.000569511
0.00055484
0.000544382
0.000538285
0.000535059
0.000532826
0.000529259
0.000521128
0.000506487
0.000487092
0.000457127
0.000416459
0.00040166
2.44944e-05
0.000207163
0.000390061
0.000532929
0.000624758
0.000678651
0.000711915
0.000733731
0.000748238
0.000757225
0.000760318
0.00075865
0.000750828
0.00073717
0.000719185
0.00069718
0.000671174
0.000637684
0.000601568
0.000565123
0.000531716
0.000500947
0.000473864
0.000455274
0.000444843
0.000442858
0.000447113
0.000458879
0.000472232
0.000483194
0.00048575
0.000476567
0.000455154
0.000429643
0.000411856
6.19466e-05
0.000280608
0.00046467
0.000584395
0.000660425
0.000713879
0.000754172
0.000784222
0.000804566
0.000815167
0.00081607
0.000809893
0.000794334
0.000771299
0.000741939
0.000708008
0.000670985
0.000632721
0.00059244
0.00055079
0.000507569
0.000467713
0.000433015
0.000406741
0.000390148
0.0003839
0.000387646
0.000402995
0.000423637
0.000443342
0.000455796
0.000456704
0.000446643
0.000425704
0.000378858
9.19944e-05
0.000325675
0.000509014
0.000627557
0.000701244
0.000750663
0.000785693
0.00080984
0.000824718
0.000831232
0.000830161
0.000821464
0.000805844
0.000783674
0.000755554
0.0007225
0.000684895
0.000642892
0.000597536
0.000550917
0.000505355
0.000461556
0.00042113
0.000387396
0.000363698
0.000350883
0.000351375
0.000364347
0.000387025
0.0004114
0.000430758
0.000439266
0.000434214
0.000412187
0.000351262
0.000114767
0.00034827
0.000527237
0.000643266
0.000717921
0.000770913
0.000810976
0.000840848
0.00086137
0.000872809
0.000875325
0.000869878
0.000856123
0.000834891
0.000806872
0.000772951
0.000734558
0.00069197
0.000645433
0.000595739
0.00054453
0.000494202
0.000446773
0.000403774
0.000369001
0.000345605
0.000334706
0.000338284
0.000356784
0.000382534
0.00040697
0.000421865
0.000420518
0.000399556
0.000339091
0.000126797
0.000364004
0.000545441
0.000663371
0.00073898
0.000792298
0.000832088
0.000861271
0.000881096
0.000892272
0.000895308
0.000890738
0.000878892
0.000860243
0.000835252
0.000804482
0.000768719
0.000728331
0.000683344
0.00063428
0.000582318
0.000529381
0.000477506
0.000428066
0.000384423
0.000351257
0.000331797
0.000326625
0.000336267
0.000360078
0.000386587
0.000405546
0.000407085
0.000389196
0.000335597
0.000133674
0.000370091
0.000551585
0.000672761
0.000752796
0.000810693
0.000855141
0.000889095
0.000913697
0.000929505
0.000936891
0.000936254
0.000928006
0.000912503
0.000890211
0.000861676
0.000827586
0.000788916
0.000745701
0.000697873
0.000645809
0.000590644
0.000534367
0.000478394
0.000424747
0.000378539
0.000343665
0.000327423
0.000327969
0.000344837
0.000371405
0.000392711
0.000396339
0.000381185
0.000335955
0.000135484
0.000374273
0.000559299
0.000684015
0.000766928
0.000826962
0.000872952
0.000908089
0.000933769
0.000950814
0.000959794
0.000961212
0.000955679
0.000943401
0.000924797
0.00090022
0.00087007
0.000834895
0.000795163
0.000750672
0.000701364
0.000647759
0.000591433
0.0005338
0.000474878
0.000417967
0.000370215
0.000336648
0.000327472
0.000334391
0.000358057
0.000380751
0.000387055
0.000376408
0.000345082
0.000136099
0.000375556
0.000562504
0.000692455
0.000781503
0.000846803
0.00089724
0.000936452
0.000966021
0.00098683
0.000999458
0.00100438
0.00100219
0.00099323
0.000977841
0.000956402
0.000929274
0.000896843
0.000859651
0.000817964
0.000771299
0.000719452
0.000662989
0.000603507
0.000541618
0.000477637
0.000417216
0.000367741
0.000337395
0.000335651
0.000349223
0.000372016
0.000381487
0.000376573
0.000357799
0.000134446
0.000377232
0.000568768
0.000702842
0.000795147
0.000863345
0.000916221
0.000957293
0.000988425
0.00101077
0.00102508
0.00103196
0.00103198
0.001026
0.00101393
0.000996226
0.000973141
0.000944878
0.00091165
0.000873965
0.000831202
0.000782766
0.000728576
0.000669581
0.000606349
0.000537262
0.000464347
0.000399486
0.000353855
0.000338334
0.000347946
0.000367992
0.000378196
0.000376343
0.000361492
0.000132251
0.000379814
0.000576786
0.00071732
0.000815038
0.000887478
0.00094408
0.000988523
0.00102256
0.00104764
0.00106458
0.00107408
0.00107668
0.00107346
0.00106438
0.00104988
0.00103024
0.00100562
0.000976118
0.000942046
0.000903503
0.000859597
0.000809439
0.000752767
0.000690197
0.000620234
0.000540755
0.000458194
0.000387139
0.000349279
0.000348803
0.00036617
0.000377937
0.000377174
0.000370545
0.000129699
0.000383824
0.000588178
0.000734135
0.000834981
0.000909388
0.000967679
0.00101402
0.00104983
0.00107613
0.00109408
0.00110483
0.00110889
0.00110744
0.00110083
0.00108933
0.00107326
0.00105265
0.00102742
0.000997625
0.000963586
0.000924305
0.000878779
0.000826826
0.000769449
0.000705426
0.000628451
0.000537932
0.00044802
0.000379962
0.000357275
0.000368386
0.000378756
0.000381959
0.00039393
0.000130401
0.000394642
0.000609084
0.000761694
0.000865893
0.000941946
0.0010015
0.00104916
0.00108682
0.00111543
0.00113551
0.00114757
0.00115251
0.00115217
0.00114743
0.00113812
0.00112478
0.00110735
0.0010855
0.00105892
0.00102756
0.000990674
0.000947141
0.000896587
0.000840327
0.000778112
0.000704213
0.000615954
0.000520848
0.000430296
0.000378623
0.000373461
0.000382688
0.000392738
0.000421342
0.000134428
0.000409425
0.000634243
0.000790929
0.000895675
0.000971034
0.00102963
0.00107652
0.00111383
0.00114278
0.00116416
0.0011784
0.00118584
0.00118665
0.00118335
0.00117591
0.00116568
0.00115199
0.0011341
0.00111141
0.00108365
0.00104976
0.00100842
0.000959276
0.000903554
0.000841346
0.000768107
0.000682275
0.000587762
0.000486117
0.000409337
0.000385486
0.000389237
0.000403081
0.000447163
0.000147154
0.000438582
0.00067417
0.000832828
0.000935789
0.00100863
0.00106466
0.00110935
0.00114488
0.00117263
0.00119343
0.00120783
0.00121685
0.00122159
0.00122241
0.00122098
0.00121647
0.00120881
0.00119695
0.00117948
0.00115591
0.00112424
0.00108287
0.00103166
0.000972112
0.000904937
0.000827247
0.000740038
0.000646523
0.00054221
0.000449812
0.000408263
0.000405617
0.000420693
0.000481057
0.000166011
0.000469956
0.00071224
0.000869067
0.00096808
0.001037
0.00108946
0.00113063
0.00116284
0.00118791
0.00120662
0.00121895
0.00122719
0.00123327
0.001239
0.00124566
0.00125244
0.00125966
0.00126278
0.00125974
0.00124522
0.00121635
0.00117254
0.00111457
0.00104422
0.000964858
0.000878316
0.000788241
0.000694787
0.000589667
0.000487428
0.000430064
0.000421052
0.000439851
0.000510854
0.000195167
0.000513066
0.00075706
0.000909337
0.00100309
0.00106739
0.00111545
0.00115201
0.00117918
0.00119841
0.00121179
0.00122138
0.00122831
0.00123467
0.00124231
0.0012545
0.00127514
0.00130183
0.00132177
0.00133085
0.00132469
0.00129856
0.00125441
0.0011943
0.00112037
0.00103395
0.000939082
0.000840311
0.000739014
0.000632301
0.000527765
0.000462118
0.000446297
0.000461915
0.000512453
0.000221638
0.000542239
0.000783106
0.000931554
0.00102227
0.00108394
0.00112905
0.00116192
0.00118471
0.00119923
0.00120686
0.00120875
0.00120798
0.00121046
0.00121914
0.00124038
0.00127639
0.00132114
0.00136899
0.00139902
0.00139941
0.00137634
0.00133031
0.00126751
0.00119152
0.00110346
0.00100235
0.000884924
0.000750799
0.000632275
0.000535966
0.000479381
0.000466976
0.000476671
0.000483433
0.000240556
0.00056242
0.000802857
0.000950067
0.0010403
0.0011014
0.00114511
0.00117554
0.00119444
0.00120359
0.00120582
0.00120156
0.0011917
0.00117836
0.0011759
0.00119442
0.00123831
0.00130516
0.00137395
0.0014245
0.00145002
0.00144639
0.00141505
0.00136224
0.00129126
0.00120333
0.00109434
0.000954729
0.000785992
0.000634513
0.000542115
0.000496378
0.000481262
0.000474167
0.000430519
0.000241021
0.00056367
0.000804953
0.00095539
0.00104801
0.00111129
0.0011568
0.00118815
0.00120685
0.00121371
0.0012113
0.00120259
0.00118967
0.00117348
0.00115714
0.00114274
0.00115286
0.00120515
0.00129551
0.00138561
0.0014507
0.00148291
0.0014866
0.00146326
0.00141421
0.0013402
0.001236
0.00108978
0.000891181
0.000674537
0.000551224
0.000504626
0.000490615
0.000474551
0.00042695
0.000227838
0.000554892
0.000802904
0.000958845
0.00105536
0.00112194
0.0011712
0.00120732
0.00123178
0.00124502
0.00124699
0.00123794
0.0012187
0.0011914
0.00115994
0.00113164
0.00111145
0.0011054
0.00113006
0.0012196
0.00133596
0.0014312
0.00148947
0.00151362
0.00150883
0.00147351
0.00140327
0.00128716
0.00110641
0.000857115
0.000620183
0.000518557
0.000492907
0.000476031
0.000445886
0.000213748
0.000544145
0.000798239
0.000960172
0.00106093
0.0011302
0.00118131
0.00121898
0.00124535
0.00126183
0.00126948
0.00126942
0.00126213
0.00124677
0.0012222
0.00118765
0.00114526
0.00110305
0.00107571
0.00108478
0.00115816
0.00128291
0.001391
0.00146519
0.00150558
0.00151541
0.00149441
0.00142642
0.00129388
0.00107271
0.000792148
0.000588838
0.000518173
0.00049288
0.000487319
0.000203212
0.000539577
0.000798082
0.000966582
0.00107217
0.00114487
0.00119898
0.00123949
0.00126833
0.00128654
0.00129491
0.00129478
0.00128815
0.00127559
0.00125799
0.00123498
0.00120491
0.00116611
0.00112077
0.00108125
0.00108226
0.00114523
0.00125967
0.00136693
0.00144588
0.00149005
0.001499
0.0014734
0.00138633
0.00120888
0.000941172
0.000687876
0.000567324
0.000520086
0.000511837
0.000201303
0.000539357
0.000803346
0.0009763
0.0010847
0.00115906
0.00121455
0.00125662
0.0012874
0.00130819
0.00131988
0.00132328
0.00132004
0.00131016
0.00129414
0.00127212
0.00124385
0.00120888
0.00116731
0.00112075
0.00108287
0.00109352
0.00117611
0.00128343
0.00137876
0.00144454
0.00147729
0.00147023
0.00140538
0.00125831
0.00101955
0.000767869
0.000625741
0.000554201
0.000520006
0.000205864
0.000550724
0.000820374
0.00099443
0.00110317
0.0011781
0.00123454
0.00127751
0.00130873
0.00132973
0.00134187
0.00134619
0.00134459
0.00133829
0.00132806
0.00131373
0.0012938
0.0012659
0.00122816
0.00117911
0.00112429
0.00109207
0.00112301
0.0012179
0.00132343
0.00140256
0.00144526
0.00144763
0.00139878
0.00126744
0.00105351
0.000822045
0.000675642
0.000585104
0.000525548
0.00022157
0.000570447
0.000840738
0.00101268
0.00111996
0.00119435
0.00125104
0.00129517
0.00132813
0.00135105
0.00136501
0.00137109
0.00137089
0.00136666
0.00136053
0.00135372
0.00134494
0.00132978
0.0013036
0.00125927
0.00119573
0.00113253
0.00111618
0.00115742
0.00125208
0.00134377
0.0014019
0.00141844
0.00138419
0.00127314
0.00108311
0.000870486
0.00072377
0.000620819
0.000548899
0.00024925
0.000599637
0.000865819
0.00103282
0.00113711
0.00120972
0.00126454
0.0013066
0.00133802
0.00136038
0.00137513
0.00138348
0.00138686
0.00138679
0.00138514
0.00138657
0.00139673
0.00141073
0.00141137
0.00139149
0.00133834
0.00126335
0.00120245
0.0011932
0.00124474
0.00131853
0.00137364
0.00139475
0.00137007
0.00127509
0.00110539
0.000908585
0.000764895
0.000657801
0.000574872
0.000277319
0.000620141
0.000879484
0.00104287
0.00114619
0.00121881
0.00127326
0.00131435
0.00134483
0.00136646
0.00138073
0.0013885
0.00139096
0.00138979
0.00138709
0.00138866
0.00140067
0.00142461
0.00145291
0.00146242
0.00144159
0.00139198
0.00133402
0.00129028
0.00128813
0.00132967
0.00137669
0.00139621
0.00137201
0.0012875
0.00113334
0.00094887
0.000805985
0.000691032
0.000580143
0.000297407
0.000626531
0.000881112
0.00104489
0.00114938
0.00122296
0.00127812
0.00131922
0.00134925
0.00137087
0.00138576
0.00139365
0.00139441
0.00139035
0.00138492
0.00137869
0.00138542
0.00141693
0.00145813
0.00149302
0.00150718
0.0014941
0.00145722
0.00141232
0.00138576
0.00138956
0.00140497
0.00140872
0.00137903
0.0012952
0.00115014
0.000978852
0.00083937
0.000717352
0.000575265
0.000298893
0.000625643
0.000879273
0.00104495
0.00115049
0.0012248
0.00128094
0.00132418
0.0013581
0.00138359
0.00140206
0.00141346
0.00141585
0.00140799
0.00139209
0.00137379
0.00135858
0.00135461
0.00138892
0.00145269
0.00150742
0.00153633
0.00153562
0.0015095
0.00147734
0.00145949
0.00145445
0.00144317
0.0014043
0.00131852
0.00117854
0.00101509
0.000872733
0.000736771
0.000558531
0.000285369
0.000606545
0.000862905
0.0010343
0.00114421
0.00122118
0.00127852
0.00132421
0.00135989
0.00138962
0.00141754
0.00144237
0.00145997
0.0014644
0.00145041
0.00141627
0.00136954
0.00133016
0.00131905
0.00134667
0.00142367
0.00150227
0.00155161
0.00156886
0.00155726
0.00153284
0.00151026
0.00148219
0.00143166
0.00134099
0.00120443
0.00104923
0.000904815
0.000754721
0.000551778
0.000258685
0.000588865
0.000854213
0.00103176
0.00114443
0.00122147
0.00127896
0.00132374
0.00135995
0.0013907
0.00142233
0.00145595
0.00148908
0.00151487
0.00152464
0.0015114
0.00147169
0.00140685
0.00133257
0.00128219
0.00128376
0.00137336
0.00148372
0.0015551
0.00157821
0.00157679
0.00155513
0.00151857
0.00145934
0.00136434
0.00123067
0.00108201
0.000934365
0.000770241
0.00055169
0.00024798
0.000586803
0.000852647
0.00103107
0.00114482
0.00122283
0.00127987
0.00132373
0.00136032
0.00139542
0.00143338
0.00147702
0.00152354
0.00156411
0.00158769
0.001587
0.00156196
0.00150955
0.00143457
0.00134562
0.0012739
0.00126859
0.00133735
0.0014569
0.00154443
0.00157372
0.00157039
0.00153983
0.00147922
0.00138376
0.00125522
0.00111338
0.000963937
0.00078741
0.000558918
0.000245292
0.000590311
0.000862385
0.00104289
0.00115748
0.00123405
0.00128923
0.00133103
0.00136473
0.0013994
0.00144275
0.00150117
0.00157079
0.00163732
0.00168354
0.00169746
0.00167911
0.00162644
0.00154605
0.00144422
0.0013363
0.0012634
0.00126784
0.00134416
0.00145611
0.00153822
0.00156436
0.00154296
0.00148834
0.00139593
0.00127443
0.00113955
0.000990183
0.000805849
0.000575267
0.000253196
0.000612387
0.000890902
0.00106669
0.00117427
0.00124496
0.00129553
0.00133372
0.00136647
0.00140302
0.00145641
0.00153492
0.00163428
0.00173267
0.00180404
0.00183239
0.00181839
0.00176551
0.00167771
0.00155991
0.00142601
0.00131024
0.0012604
0.00128116
0.00136051
0.00144883
0.00151328
0.00152783
0.00148599
0.00140237
0.00129018
0.00116263
0.0010146
0.000825074
0.000590165
0.000283784
0.000652617
0.00092792
0.00109274
0.00119062
0.00125396
0.00129744
0.00132732
0.00135451
0.00139189
0.00146222
0.00157651
0.00171972
0.00186096
0.00196387
0.00201191
0.00200576
0.00194938
0.00184573
0.0017023
0.00153961
0.00138461
0.00128286
0.00126041
0.00129898
0.00137303
0.00143742
0.00146911
0.00145704
0.001396
0.00129724
0.00117905
0.00103602
0.000844098
0.000604837
0.000331451
0.000702381
0.000967089
0.0011182
0.00120483
0.0012581
0.00129221
0.00131586
0.00133712
0.00137092
0.00144577
0.00158878
0.00177737
0.00195865
0.00208885
0.00215212
0.00216167
0.00212164
0.00203114
0.00188862
0.00169688
0.00149233
0.00133751
0.00126265
0.00126644
0.00131746
0.0013769
0.00141284
0.00141028
0.00136616
0.00128937
0.00118781
0.00105363
0.000861801
0.000608722
0.000384926
0.000739691
0.000990302
0.00112954
0.0012076
0.00125473
0.00128273
0.0012972
0.00130762
0.00133218
0.0014054
0.00156334
0.00178229
0.00198469
0.00213753
0.00224041
0.00227994
0.00226087
0.00219074
0.0020668
0.00188699
0.00166019
0.00143014
0.00129344
0.001259
0.00128261
0.00133158
0.0013681
0.00137263
0.00134014
0.00127386
0.00118497
0.0010632
0.000873952
0.000609086
0.000405045
0.000749755
0.000993632
0.00113077
0.00120536
0.00125028
0.00127604
0.00128463
0.00127987
0.00128295
0.00132761
0.00145574
0.00167854
0.00192151
0.00211733
0.00225108
0.00232864
0.00235726
0.00232819
0.00224093
0.0020915
0.00188223
0.00162798
0.00138302
0.00126698
0.00125996
0.00129282
0.00133025
0.0013416
0.0013193
0.00126346
0.00118524
0.00107291
0.000892265
0.000617851
0.000402538
0.000749484
0.000990977
0.00112428
0.00120033
0.00124745
0.00127379
0.00128192
0.00127485
0.00125883
0.00125626
0.00131458
0.00147701
0.00172905
0.00197704
0.00217298
0.00231013
0.00238838
0.00241495
0.00238339
0.00228972
0.002131
0.00190563
0.00162419
0.00136498
0.00126597
0.00126759
0.00129446
0.00131485
0.00130352
0.00125684
0.00118678
0.00108431
0.000911255
0.000629808
0.00039186
0.000739027
0.000982109
0.00111851
0.00119608
0.00124433
0.00127342
0.00128134
0.00127501
0.00125583
0.00123642
0.00125348
0.00135494
0.00155755
0.00181547
0.00204908
0.00223088
0.00235963
0.00243512
0.00245976
0.00242671
0.00233031
0.00216377
0.00192194
0.00162637
0.00136388
0.00127193
0.00127255
0.00128508
0.001283
0.00124888
0.00118628
0.00109341
0.000930062
0.000652943
0.000391546
0.000739036
0.00098089
0.00111632
0.00119387
0.001243
0.00127319
0.00128214
0.00127433
0.00125675
0.00123299
0.00121872
0.00127338
0.00143629
0.0016778
0.00192782
0.00213633
0.00229685
0.0024105
0.00247468
0.00248841
0.00244546
0.00233734
0.00215524
0.00189724
0.00160103
0.0013627
0.00127835
0.00127287
0.00126646
0.00123776
0.00118387
0.00109993
0.00094392
0.000664927
0.000391744
0.000736868
0.000976468
0.00111134
0.00118967
0.00124012
0.00127092
0.00128091
0.00127606
0.00125776
0.00123124
0.00120903
0.00120581
0.00130424
0.00151576
0.00177212
0.00200614
0.00219511
0.00234104
0.00244408
0.00249722
0.00249668
0.00243486
0.00230053
0.00208758
0.00180803
0.00152547
0.00133585
0.0012735
0.00125768
0.00123021
0.00118092
0.00110283
0.000950109
0.000664557
0.000386379
0.000732425
0.000971202
0.00110638
0.00118583
0.0012379
0.00127156
0.00128382
0.00128213
0.00126703
0.00124112
0.00120964
0.001189
0.00120823
0.00135458
0.00159287
0.00183945
0.00205092
0.00222253
0.00235744
0.00245146
0.00249195
0.00247106
0.00237901
0.0022074
0.00196015
0.00167464
0.00143369
0.0013037
0.0012618
0.00122331
0.00117587
0.00110091
0.000948694
0.000649677
0.000386473
0.000732496
0.000969532
0.00110249
0.00118237
0.00123582
0.00127068
0.00128755
0.00128879
0.00127625
0.00125191
0.00121939
0.00119127
0.00119202
0.00127883
0.00148037
0.0017136
0.001926
0.00210441
0.00225331
0.00237156
0.00244866
0.00246703
0.00241329
0.00227941
0.00206568
0.00179731
0.00153636
0.00135717
0.00126881
0.00122263
0.00116984
0.00109331
0.000937455
0.000628514
0.000400639
0.000737928
0.000968455
0.00110111
0.0011812
0.00123569
0.00127225
0.0012901
0.00129217
0.00128048
0.00125635
0.00122279
0.00118855
0.0011811
0.00125158
0.00143013
0.00164877
0.00184792
0.0020222
0.00217415
0.00230231
0.0023976
0.00244503
0.00242486
0.00232417
0.00214209
0.00189583
0.00163288
0.00142274
0.00129615
0.00122378
0.00116357
0.00108363
0.000923119
0.000609644
0.000420015
0.000741973
0.000967234
0.00109739
0.0011775
0.00123344
0.00127314
0.00129327
0.00129779
0.00128918
0.00126726
0.00123322
0.00119217
0.0011694
0.00119047
0.0013287
0.00154192
0.00174463
0.00192417
0.00208638
0.00222632
0.00233721
0.00240868
0.00242168
0.00235277
0.00220155
0.00197977
0.0017242
0.00149585
0.00133705
0.00123778
0.00116567
0.0010725
0.000907403
0.000590075
0.000421434
0.000738571
0.000960634
0.00108985
0.00117047
0.00122751
0.00126769
0.00129306
0.00130204
0.00129837
0.00128194
0.0012534
0.0012135
0.00116954
0.00115462
0.0012083
0.00138034
0.00159503
0.00179578
0.00197482
0.00212883
0.00225449
0.00234503
0.00238311
0.00235084
0.00223537
0.00204461
0.00180809
0.00157694
0.00139561
0.00126896
0.00117214
0.00107045
0.000892845
0.000571386
0.000414871
0.000729027
0.000949746
0.00107974
0.00116251
0.00122269
0.00126683
0.00129571
0.00130859
0.00130923
0.00129842
0.00127655
0.00124341
0.00119906
0.00115292
0.0011438
0.00121314
0.00139358
0.00161399
0.00181909
0.00199469
0.00214062
0.00225333
0.00231903
0.00232243
0.0022426
0.0020873
0.00187741
0.00165407
0.00145979
0.00131034
0.00119215
0.00107191
0.00088515
0.000561113
0.000408264
0.000720708
0.000939552
0.00106972
0.00115369
0.00121579
0.00126297
0.00129642
0.00131377
0.00131826
0.00131255
0.00129684
0.0012713
0.0012344
0.00118508
0.00114316
0.00114338
0.00123936
0.00142999
0.00164106
0.00183616
0.00200316
0.00213978
0.00223554
0.00227273
0.00223837
0.0021219
0.00194387
0.00173671
0.00153848
0.00137128
0.00123037
0.00108508
0.000886364
0.000560482
0.000410015
0.000717357
0.000931908
0.00106267
0.00114833
0.00121229
0.00126144
0.00129747
0.00131773
0.00132621
0.00132418
0.00131189
0.00128979
0.00125766
0.00121438
0.00116341
0.00114028
0.00118682
0.00132763
0.00151419
0.0016969
0.00186861
0.00201658
0.00213115
0.00219319
0.00219324
0.00211927
0.00198198
0.00179909
0.00160364
0.00142469
0.00126651
0.00110358
0.000888913
0.000560257
0.000428893
0.000716521
0.000925849
0.00105616
0.00114304
0.00120882
0.00126031
0.00129984
0.00132308
0.0013351
0.00133604
0.00132653
0.00130614
0.0012744
0.00123049
0.00117838
0.00114822
0.00117573
0.00128234
0.00144293
0.00160943
0.00176519
0.00191241
0.00203292
0.00211053
0.00213037
0.00208829
0.00198196
0.00183414
0.00166376
0.00148466
0.00131283
0.00113017
0.000891839
0.000556124
0.000434548
0.000708078
0.000914648
0.00104606
0.0011348
0.00120253
0.00125568
0.001296
0.00132479
0.00134166
0.00134693
0.00134259
0.00132766
0.00130175
0.0012632
0.00121102
0.00116086
0.00115739
0.00123482
0.00137796
0.00153202
0.0016736
0.00180452
0.00192424
0.00201122
0.00204553
0.00202638
0.00195288
0.00183003
0.00167389
0.00151067
0.00134186
0.00115193
0.000896569
0.000537655
0.000433016
0.000694217
0.000899937
0.00103333
0.00112445
0.00119488
0.00125145
0.00129576
0.00132808
0.0013489
0.0013593
0.00136005
0.00135113
0.00133086
0.00129847
0.00125172
0.00119056
0.0011549
0.00117545
0.00128514
0.00143278
0.00157468
0.0016998
0.00180892
0.00189441
0.00194286
0.00194354
0.0018913
0.0017926
0.0016625
0.00151075
0.00135167
0.00116527
0.000900118
0.000523531
0.000421176
0.000675772
0.000882535
0.00101891
0.00111263
0.0011854
0.00124464
0.00129244
0.00132921
0.00135451
0.0013708
0.00137695
0.00137453
0.00136155
0.00133666
0.00129785
0.0012428
0.00117643
0.00115141
0.00119296
0.00132344
0.00146923
0.00159603
0.00170373
0.00178919
0.00184405
0.00186091
0.00183184
0.00175597
0.00164398
0.00150912
0.00135979
0.00117828
0.000908606
0.000515963
0.000402014
0.000653695
0.00086268
0.0010029
0.00109977
0.00117532
0.00123768
0.00128941
0.00133142
0.0013599
0.00138141
0.00139476
0.00139855
0.00139334
0.00137722
0.00134921
0.00130659
0.0012448
0.00117138
0.00115199
0.00121499
0.00135213
0.00148935
0.00160317
0.00169145
0.00175114
0.0017755
0.00175918
0.00170388
0.00161355
0.00149635
0.00135922
0.00118339
0.000914967
0.000515411
0.000379376
0.000629908
0.00084113
0.000985724
0.00108594
0.00116398
0.00122883
0.00128369
0.0013304
0.0013632
0.00139028
0.00140995
0.00142128
0.00142307
0.00141504
0.00139519
0.00136193
0.00131196
0.001241
0.00116519
0.00115127
0.00123182
0.00136776
0.00149538
0.00159686
0.00166878
0.00170629
0.00170399
0.00166216
0.00158559
0.0014834
0.00135816
0.00119252
0.000926842
0.00052121
0.000359822
0.000608527
0.00082161
0.000970581
0.00107446
0.0011553
0.00122281
0.00128059
0.00133069
0.00136836
0.00140059
0.00142608
0.00144407
0.00145325
0.00145352
0.00144328
0.00142024
0.00138208
0.00132496
0.00124585
0.00116563
0.00115214
0.0012418
0.00137808
0.00149588
0.00157991
0.00162895
0.0016395
0.00161181
0.00154922
0.00146079
0.00134969
0.0011937
0.000933383
0.000524892
0.000336668
0.000584063
0.000799258
0.00095324
0.0010612
0.00114484
0.00121482
0.00127533
0.00132814
0.00137161
0.00140961
0.00144114
0.00146576
0.00148291
0.00149102
0.00149003
0.00147722
0.00145005
0.00140506
0.00133744
0.00124555
0.00116926
0.00116816
0.00126382
0.00139943
0.00150625
0.00157069
0.00159339
0.00157788
0.00152568
0.00144721
0.00134554
0.00120092
0.000950206
0.000545497
0.000316452
0.000563813
0.000780188
0.00093878
0.00105103
0.00113755
0.00120984
0.00127287
0.00132985
0.00137737
0.00142095
0.00145804
0.0014886
0.00151237
0.00152891
0.00153654
0.00153378
0.00151709
0.00148243
0.001426
0.00134403
0.00124041
0.00116456
0.00117649
0.00127982
0.00139886
0.0014862
0.00153225
0.00153559
0.00150157
0.00143442
0.00134113
0.00120277
0.000959244
0.000556335
0.000295313
0.000542883
0.000761118
0.000924898
0.00104092
0.00112973
0.00120403
0.00126976
0.00133103
0.00138444
0.00143471
0.00147721
0.00151386
0.00154414
0.00156863
0.00158609
0.00159442
0.00159094
0.00157093
0.00152775
0.00145472
0.00135173
0.00123464
0.001168
0.00120546
0.00132114
0.00142488
0.00147906
0.0014894
0.00146548
0.0014088
0.00132471
0.00119823
0.000961634
0.000555465
0.000273978
0.000525182
0.000745266
0.000913107
0.00103249
0.00112306
0.00119808
0.0012637
0.00132462
0.00138649
0.00144226
0.0014933
0.00153937
0.00157716
0.00161043
0.00163802
0.00165763
0.00166745
0.00166377
0.00163852
0.00158404
0.00149547
0.00137329
0.00124415
0.00118539
0.0012293
0.00134061
0.00142996
0.00146125
0.00144848
0.0013972
0.00132088
0.00119902
0.00096563
0.000563763
0.000260797
0.00051238
0.000734744
0.000904464
0.00102525
0.00111674
0.00119238
0.00125883
0.00132055
0.00138162
0.00144324
0.00149873
0.00154924
0.00159706
0.00164345
0.00168591
0.00172513
0.00175702
0.00177511
0.00177083
0.00173582
0.00166397
0.00155367
0.00141024
0.00126964
0.00120842
0.001228
0.00132021
0.00139963
0.00142114
0.00139464
0.0013261
0.00121518
0.00100688
0.000672955
0.000255159
0.000508057
0.000730654
0.000901427
0.0010223
0.00111319
0.00118832
0.00125479
0.00131802
0.00138001
0.00143889
0.0014943
0.00154716
0.00160061
0.00164994
0.00169895
0.00174965
0.00179969
0.00184601
0.00187991
0.00188512
0.00184921
0.00174545
0.00159048
0.00142887
0.00128994
0.00122395
0.00123386
0.00130935
0.00137126
0.00137557
0.00133044
0.00123406
0.00105339
0.000771665
0.000250443
0.000505736
0.000728869
0.000899435
0.0010194
0.00110888
0.00118239
0.00124706
0.00130944
0.00137151
0.00143174
0.00148756
0.00154055
0.00159306
0.00165014
0.0017117
0.00177445
0.00183848
0.00190061
0.00195552
0.00199203
0.00198847
0.00193689
0.00180815
0.00163298
0.00145277
0.00129491
0.00123119
0.00124553
0.00131555
0.00134759
0.00132576
0.00124588
0.00108941
0.000826149
0.000250457
0.000505524
0.000729909
0.000899419
0.00101833
0.00110591
0.00117792
0.00124098
0.00130195
0.00136337
0.00142346
0.00147927
0.00153379
0.00159021
0.00164946
0.00171342
0.00177948
0.00185121
0.00192564
0.00199906
0.0020628
0.00209804
0.00208553
0.00201037
0.00188043
0.00169712
0.00147078
0.0012877
0.00123999
0.00126585
0.00131522
0.00130995
0.00124902
0.00111615
0.000848615
0.000255986
0.00051512
0.00073716
0.000901224
0.00101837
0.00110324
0.00117299
0.00123336
0.00129156
0.00135147
0.00141168
0.00146901
0.00152506
0.00158241
0.00164494
0.00171745
0.00179182
0.00187461
0.00196177
0.00205022
0.00213321
0.00219572
0.00221823
0.00219298
0.00210877
0.00196366
0.00175208
0.00149276
0.00129166
0.00126068
0.00128042
0.00128531
0.00124554
0.00112841
0.000857654
0.000270172
0.000528993
0.000747281
0.000906725
0.00101899
0.00110186
0.00116912
0.00122647
0.00128077
0.00133865
0.00139871
0.00145784
0.00151564
0.00157477
0.001639
0.00171234
0.00179817
0.00189475
0.00199653
0.0021037
0.00220831
0.00229737
0.00235094
0.00235648
0.00231543
0.00220052
0.0020187
0.00177387
0.00149087
0.00129636
0.00127668
0.00127079
0.00123596
0.00113802
0.00088554
0.000296863
0.000550081
0.000760443
0.000913037
0.00102126
0.00110032
0.00116409
0.00121778
0.00126702
0.00132136
0.00138051
0.00144139
0.00150039
0.00156033
0.00162619
0.00170467
0.00180189
0.00190954
0.00202743
0.00215361
0.00227665
0.00238764
0.00246716
0.0025034
0.00248993
0.00240998
0.00226132
0.00204461
0.00175894
0.00145147
0.00129382
0.00126959
0.00123108
0.00114091
0.000896324
0.000334896
0.000567312
0.000767757
0.000915243
0.00101879
0.0010956
0.00115622
0.00120666
0.00125253
0.0013009
0.00135647
0.00141731
0.00147725
0.00153599
0.00159849
0.00167368
0.00177008
0.0018915
0.00203298
0.00217916
0.00232197
0.00244751
0.00254168
0.00259694
0.00260587
0.00256412
0.00245326
0.00227567
0.00202091
0.00169294
0.00140537
0.00128359
0.0012317
0.00114071
0.000893846
0.000358374
0.000571355
0.000769289
0.000916333
0.00101707
0.00109018
0.00114707
0.00119403
0.00123659
0.00128051
0.00133366
0.00139462
0.00145506
0.00150825
0.00155946
0.0016207
0.00170962
0.00183663
0.00199749
0.00217308
0.00233955
0.00248084
0.00258818
0.00265916
0.00268501
0.00265965
0.00257213
0.00241714
0.00217684
0.00184898
0.00152336
0.00133827
0.00124554
0.00113285
0.000826182
0.000357487
0.000570447
0.000764346
0.000907762
0.00100689
0.00107828
0.00113355
0.00117952
0.00122213
0.00126691
0.00131788
0.00137916
0.00144729
0.00149855
0.00152948
0.00155503
0.0015994
0.00170214
0.00186252
0.00205871
0.00225497
0.00242647
0.00256055
0.00264711
0.00268069
0.00265944
0.00257791
0.00242572
0.00219102
0.00188506
0.00158098
0.00138402
0.00125354
0.00108556
0.000701725
0.0003286
0.000549597
0.000754983
0.000899789