/*--------------------------------*- C++ -*----------------------------------*\
| =========                 |                                                 |
| \\      /  F ield         | OpenFOAM: The Open Source CFD Toolbox           |
|  \\    /   O peration     | Version:  2.0.x                                 |
|   \\  /    A nd           | Web:      www.OpenFOAM.org                      |
|    \\/     M anipulation  |                                                 |
\*---------------------------------------------------------------------------*/
FoamFile
{
    version     2.0;
    format      ascii;
    class       volScalarField;
    location    "350";
    object      mut;
}
// * * * * * * * * * * * * * * * * * * * * * * * * * * * * * * * * * * * * * //

dimensions      [1 -1 -1 0 0 0 0];

internalField   nonuniform List<scalar> 
78750
(
3.52578e-08
1.23823e-05
1.53775e-05
1.77926e-05
2.00069e-05
2.01552e-05
1.91945e-05
1.83872e-05
1.77689e-05
1.75926e-05
1.7522e-05
1.76755e-05
1.84431e-05
1.92147e-05
1.96771e-05
1.96398e-05
2.00421e-05
2.04701e-05
2.15617e-05
2.08146e-05
2.17127e-05
2.39466e-05
2.31647e-05
2.34127e-05
2.33803e-05
2.27663e-05
2.16438e-05
2.12167e-05
2.10127e-05
2.01407e-05
1.90694e-05
1.77746e-05
1.6253e-05
1.30359e-05
8.18981e-08
1.98659e-08
7.84298e-06
7.33279e-06
7.63719e-06
9.17951e-06
1.21194e-05
1.60297e-05
2.14659e-05
2.63808e-05
3.09788e-05
3.34002e-05
3.5611e-05
4.01285e-05
3.99019e-05
4.00053e-05
4.38143e-05
4.66195e-05
4.89899e-05
5.24085e-05
5.58358e-05
5.63907e-05
5.61095e-05
5.43824e-05
5.39343e-05
4.06123e-05
3.79884e-05
4.34555e-05
4.08382e-05
3.40288e-05
2.75391e-05
2.45464e-05
2.12905e-05
1.8131e-05
1.65001e-05
2.58193e-07
1.16242e-08
2.95354e-06
5.25415e-06
8.66577e-06
1.42611e-05
2.40341e-05
3.63618e-05
4.49096e-05
5.1253e-05
5.44456e-05
5.7313e-05
5.82432e-05
5.70397e-05
6.03637e-05
6.43866e-05
6.32302e-05
6.22079e-05
6.09893e-05
5.86135e-05
5.59979e-05
5.45911e-05
5.3081e-05
3.8894e-05
4.02256e-05
5.40874e-05
4.26091e-05
3.48975e-05
3.21452e-05
2.93039e-05
2.67569e-05
2.44944e-05
2.22882e-05
2.21613e-05
2.08687e-05
4.25995e-07
2.91126e-08
3.42503e-06
8.1201e-06
1.77069e-05
3.42502e-05
4.87038e-05
5.56557e-05
6.00101e-05
6.31536e-05
6.47762e-05
6.47676e-05
6.39667e-05
6.0243e-05
5.58246e-05
5.34631e-05
5.24779e-05
5.08424e-05
4.72943e-05
4.42102e-05
4.18758e-05
3.89792e-05
3.45064e-05
3.0598e-05
3.57016e-05
3.56873e-05
2.69978e-05
2.54902e-05
2.51497e-05
2.38321e-05
2.24925e-05
2.14114e-05
2.15691e-05
2.65962e-05
1.68037e-05
4.35375e-07
7.35915e-08
4.11721e-06
1.10187e-05
2.40161e-05
3.96135e-05
5.10394e-05
5.7588e-05
6.06371e-05
6.15212e-05
6.1319e-05
5.99372e-05
5.77964e-05
5.47858e-05
5.14245e-05
4.78847e-05
4.35896e-05
4.0015e-05
3.82704e-05
3.73708e-05
3.60465e-05
3.46261e-05
3.29706e-05
2.95981e-05
3.07395e-05
2.88621e-05
2.20597e-05
1.88651e-05
1.78936e-05
1.81683e-05
1.81302e-05
1.78608e-05
1.948e-05
2.81414e-05
1.39216e-05
3.99696e-07
1.09247e-07
4.74494e-06
1.32178e-05
2.97921e-05
4.77188e-05
5.72785e-05
6.1488e-05
6.29317e-05
6.25617e-05
6.10444e-05
5.8784e-05
5.59355e-05
5.27471e-05
4.95081e-05
4.6521e-05
4.36685e-05
4.04315e-05
3.70927e-05
3.44043e-05
3.28163e-05
3.15889e-05
3.01043e-05
2.75449e-05
2.75142e-05
2.49345e-05
1.94521e-05
1.68456e-05
1.58355e-05
1.591e-05
1.55459e-05
1.53727e-05
1.8128e-05
2.89619e-05
1.18852e-05
3.70076e-07
1.36261e-07
4.96643e-06
1.39593e-05
3.09969e-05
4.82341e-05
5.76836e-05
6.19564e-05
6.34235e-05
6.32275e-05
6.18049e-05
5.96284e-05
5.70456e-05
5.40894e-05
5.08214e-05
4.73388e-05
4.38942e-05
4.07933e-05
3.80429e-05
3.55368e-05
3.33804e-05
3.184e-05
3.07454e-05
2.8637e-05
2.54039e-05
2.41861e-05
2.01847e-05
1.56145e-05
1.37976e-05
1.29699e-05
1.28362e-05
1.34422e-05
1.66433e-05
2.85135e-05
1.08497e-05
3.56955e-07
1.50525e-07
5.21998e-06
1.48812e-05
3.31552e-05
5.07562e-05
5.97648e-05
6.36957e-05
6.49579e-05
6.46503e-05
6.33597e-05
6.14175e-05
5.90279e-05
5.63301e-05
5.34334e-05
5.03636e-05
4.70942e-05
4.36993e-05
4.03703e-05
3.73185e-05
3.47566e-05
3.28465e-05
3.13737e-05
2.93295e-05
2.5598e-05
2.34425e-05
1.9696e-05
1.51949e-05
1.29841e-05
1.17931e-05
1.1401e-05
1.19413e-05
1.55225e-05
2.8221e-05
9.96925e-06
3.52964e-07
1.58679e-07
5.26323e-06
1.48488e-05
3.26102e-05
5.01344e-05
5.99875e-05
6.48688e-05
6.69391e-05
6.71777e-05
6.62736e-05
6.4583e-05
6.23269e-05
5.96799e-05
5.67694e-05
5.36985e-05
5.05223e-05
4.72443e-05
4.38972e-05
4.05389e-05
3.73366e-05
3.45511e-05
3.23396e-05
3.03335e-05
2.67276e-05
2.30619e-05
2.00074e-05
1.52298e-05
1.20049e-05
1.0585e-05
1.0021e-05
1.07021e-05
1.44231e-05
2.72101e-05
9.39947e-06
3.53134e-07
1.60826e-07
5.33362e-06
1.50583e-05
3.30975e-05
5.09332e-05
6.10934e-05
6.61695e-05
6.84601e-05
6.90135e-05
6.84289e-05
6.70659e-05
6.51616e-05
6.28826e-05
6.03228e-05
5.75454e-05
5.45813e-05
5.14398e-05
4.81336e-05
4.46952e-05
4.1194e-05
3.78846e-05
3.51534e-05
3.27866e-05
2.91386e-05
2.33117e-05
1.98219e-05
1.56613e-05
1.16223e-05
9.97516e-06
9.18982e-06
9.72663e-06
1.32387e-05
2.57099e-05
8.94415e-06
3.6257e-07
1.61556e-07
5.33233e-06
1.47294e-05
3.17005e-05
4.97233e-05
6.09889e-05
6.71307e-05
7.02997e-05
7.15183e-05
7.14114e-05
7.03788e-05
6.86837e-05
6.65162e-05
6.40297e-05
6.135e-05
5.85376e-05
5.5584e-05
5.24406e-05
4.90897e-05
4.55689e-05
4.19557e-05
3.85009e-05
3.54761e-05
3.25129e-05
2.6945e-05
2.06603e-05
1.64593e-05
1.18683e-05
8.97092e-06
8.26154e-06
8.69177e-06
1.20716e-05
2.45407e-05
8.54353e-06
3.75739e-07
1.59597e-07
5.3356e-06
1.47151e-05
3.18487e-05
4.99807e-05
6.15587e-05
6.8155e-05
7.1741e-05
7.32887e-05
7.3441e-05
7.26236e-05
7.11558e-05
6.92577e-05
6.71048e-05
6.47656e-05
6.23022e-05
5.97052e-05
5.69078e-05
5.38201e-05
5.04239e-05
4.67615e-05
4.30923e-05
3.98121e-05
3.64516e-05
3.10387e-05
2.23864e-05
1.66594e-05
1.1811e-05
8.60449e-06
7.58933e-06
7.97699e-06
1.14687e-05
2.42295e-05
8.06167e-06
3.79388e-07
1.56996e-07
5.30844e-06
1.43642e-05
3.0786e-05
4.91456e-05
6.14438e-05
6.86391e-05
7.28104e-05
7.48403e-05
7.53393e-05
7.47502e-05
7.34148e-05
7.15876e-05
6.94886e-05
6.72064e-05
6.48301e-05
6.23842e-05
5.98206e-05
5.70553e-05
5.40029e-05
5.06562e-05
4.70328e-05
4.32857e-05
3.96618e-05
3.55383e-05
2.7164e-05
1.96685e-05
1.29036e-05
8.32758e-06
6.93461e-06
7.4223e-06
1.06499e-05
2.29957e-05
7.84702e-06
3.88766e-07
1.53972e-07
5.28178e-06
1.41878e-05
3.04767e-05
4.91587e-05
6.17245e-05
6.8978e-05
7.32713e-05
7.55432e-05
7.62974e-05
7.58671e-05
7.46802e-05
7.30043e-05
7.1075e-05
6.90261e-05
6.69038e-05
6.47232e-05
6.25072e-05
6.0312e-05
5.79296e-05
5.47735e-05
5.10475e-05
4.7408e-05
4.43363e-05
4.13541e-05
3.31513e-05
2.18645e-05
1.55837e-05
9.99981e-06
6.80144e-06
6.70328e-06
9.60884e-06
2.11272e-05
7.81309e-06
4.13225e-07
1.54805e-07
5.24912e-06
1.38942e-05
2.98953e-05
4.88915e-05
6.17235e-05
6.89406e-05
7.31695e-05
7.54538e-05
7.64822e-05
7.65107e-05
7.57181e-05
7.42523e-05
7.24862e-05
7.07063e-05
6.88238e-05
6.68901e-05
6.45981e-05
6.19569e-05
5.89447e-05
5.60115e-05
5.29905e-05
4.98426e-05
4.73096e-05
4.5269e-05
3.80249e-05
2.62527e-05
1.93693e-05
1.18657e-05
7.22637e-06
6.33092e-06
8.62511e-06
1.97164e-05
7.79205e-06
4.41843e-07
1.5958e-07
5.24326e-06
1.38878e-05
3.00118e-05
4.92175e-05
6.18614e-05
6.86911e-05
7.26145e-05
7.46017e-05
7.54776e-05
7.55543e-05
7.51756e-05
7.44131e-05
7.3235e-05
7.17715e-05
6.97284e-05
6.72876e-05
6.52686e-05
6.33174e-05
6.11291e-05
5.87146e-05
5.61789e-05
5.35224e-05
5.1169e-05
4.88524e-05
4.17045e-05
3.00437e-05
2.33631e-05
1.42925e-05
8.07412e-06
6.31998e-06
8.00803e-06
1.85174e-05
7.80347e-06
4.68764e-07
1.74663e-07
5.33577e-06
1.41764e-05
3.08027e-05
5.02898e-05
6.25007e-05
6.8746e-05
7.22129e-05
7.37747e-05
7.43801e-05
7.42679e-05
7.37653e-05
7.30471e-05
7.19201e-05
7.019e-05
6.89071e-05
6.78738e-05
6.61998e-05
6.41481e-05
6.23635e-05
6.08158e-05
5.92441e-05
5.7402e-05
5.5228e-05
5.20534e-05
4.44344e-05
3.32144e-05
2.7192e-05
1.70675e-05
9.28103e-06
6.68081e-06
7.78264e-06
1.78354e-05
7.908e-06
5.04122e-07
1.97004e-07
5.47269e-06
1.47227e-05
3.22268e-05
5.18818e-05
6.33863e-05
6.8957e-05
7.18364e-05
7.28276e-05
7.30672e-05
7.27791e-05
7.23002e-05
7.17024e-05
7.03244e-05
6.91817e-05
6.78735e-05
6.62188e-05
6.46561e-05
6.32918e-05
6.28242e-05
6.33879e-05
6.40759e-05
6.37902e-05
6.15213e-05
5.62604e-05
4.82834e-05
3.79032e-05
3.17298e-05
1.9769e-05
1.04813e-05
7.13664e-06
7.76082e-06
1.7501e-05
8.00474e-06
5.35152e-07
2.31528e-07
5.76034e-06
1.57299e-05
3.45224e-05
5.41112e-05
6.46956e-05
6.95719e-05
7.16691e-05
7.21543e-05
7.2153e-05
7.14346e-05
7.03003e-05
6.88675e-05
6.81064e-05
6.66916e-05
6.40533e-05
6.17469e-05
6.07034e-05
6.05959e-05
6.20553e-05
6.54705e-05
6.92346e-05
7.15218e-05
7.14326e-05
6.83909e-05
5.99785e-05
5.25702e-05
3.66425e-05
2.00958e-05
1.13373e-05
7.67909e-06
8.28966e-06
1.97221e-05
7.80273e-06
5.36622e-07
2.62852e-07
6.01149e-06
1.66722e-05
3.64713e-05
5.54465e-05
6.51139e-05
6.93614e-05
7.0873e-05
7.09992e-05
7.01959e-05
6.95167e-05
6.88786e-05
6.72415e-05
6.40472e-05
5.92203e-05
5.47851e-05
5.25712e-05
5.37134e-05
5.81594e-05
6.41715e-05
7.13348e-05
7.91554e-05
8.49152e-05
8.812e-05
8.71281e-05
7.69597e-05
5.95854e-05
3.63211e-05
1.911e-05
1.10392e-05
8.08574e-06
9.58768e-06
2.35024e-05
7.65198e-06
5.06048e-07
2.8522e-07
6.26163e-06
1.7518e-05
3.79682e-05
5.66518e-05
6.59785e-05
6.99331e-05
7.1069e-05
7.05393e-05
6.88087e-05
6.65803e-05
6.37561e-05
6.02038e-05
5.54087e-05
5.01335e-05
4.56557e-05
4.41617e-05
4.75093e-05
5.57549e-05
6.65112e-05
7.80632e-05
8.94698e-05
9.74701e-05
0.000100696
9.98159e-05
9.03683e-05
6.76571e-05
3.96818e-05
2.01844e-05
1.12214e-05
8.40155e-06
1.04061e-05
2.64477e-05
7.34195e-06
4.50781e-07
2.85764e-07
6.28206e-06
1.76317e-05
3.85513e-05
5.74316e-05
6.63462e-05
6.95959e-05
6.96993e-05
6.80838e-05
6.58211e-05
6.31601e-05
6.02855e-05
5.71554e-05
5.33177e-05
4.83836e-05
4.30003e-05
3.93009e-05
3.93023e-05
4.44958e-05
5.64482e-05
7.40667e-05
9.03898e-05
0.000102315
0.000108639
0.000110178
0.000101014
7.8423e-05
4.95076e-05
2.53221e-05
1.27578e-05
8.8311e-06
1.05224e-05
2.58085e-05
7.70375e-06
4.47129e-07
2.70161e-07
6.18278e-06
1.72367e-05
3.76621e-05
5.68685e-05
6.60406e-05
6.91395e-05
6.91688e-05
6.75873e-05
6.52427e-05
6.25604e-05
5.95815e-05
5.62577e-05
5.24706e-05
4.82792e-05
4.37584e-05
3.89602e-05
3.50449e-05
3.46221e-05
4.05117e-05
5.35975e-05
7.3802e-05
9.78739e-05
0.000112804
0.000113818
0.000106218
8.8798e-05
6.39085e-05
3.72579e-05
1.81814e-05
1.01102e-05
1.03325e-05
2.36858e-05
7.93782e-06
4.67e-07
2.53498e-07
6.01621e-06
1.65001e-05
3.63955e-05
5.59214e-05
6.5588e-05
6.89892e-05
6.91398e-05
6.75845e-05
6.52675e-05
6.27323e-05
6.02453e-05
5.78562e-05
5.53687e-05
5.23471e-05
4.82882e-05
4.298e-05
3.69469e-05
3.17169e-05
2.96641e-05
3.39237e-05
5.05254e-05
7.74627e-05
9.682e-05
0.000109292
0.000107677
9.33192e-05
7.05875e-05
4.5889e-05
2.55538e-05
1.39179e-05
1.1495e-05
2.31675e-05
8.23489e-06
5.10276e-07
2.41037e-07
5.8838e-06
1.58975e-05
3.47546e-05
5.45487e-05
6.48012e-05
6.86814e-05
6.93088e-05
6.81784e-05
6.61901e-05
6.38032e-05
6.12638e-05
5.8693e-05
5.60586e-05
5.33051e-05
5.02201e-05
4.64815e-05
4.16567e-05
3.57664e-05
3.01099e-05
2.80203e-05
3.43699e-05
5.27214e-05
7.47628e-05
9.35943e-05
0.000101968
9.1684e-05
7.10299e-05
4.77994e-05
2.86003e-05
1.71783e-05
1.46782e-05
2.77099e-05
8.29344e-06
5.35771e-07
2.38783e-07
5.74256e-06
1.53276e-05
3.38498e-05
5.37376e-05
6.42317e-05
6.8363e-05
6.93002e-05
6.84182e-05
6.67334e-05
6.46376e-05
6.23142e-05
5.98107e-05
5.70321e-05
5.39404e-05
5.04593e-05
4.66677e-05
4.27702e-05
3.82119e-05
3.281e-05
2.87385e-05
2.97541e-05
4.08089e-05
5.84855e-05
7.31579e-05
8.67306e-05
8.3767e-05
6.6511e-05
4.55715e-05
2.92118e-05
1.99346e-05
1.90542e-05
3.39114e-05
8.3544e-06
5.4404e-07
2.44188e-07
5.68249e-06
1.51996e-05
3.36935e-05
5.36064e-05
6.39751e-05
6.80802e-05
6.90505e-05
6.8245e-05
6.65884e-05
6.45354e-05
6.22368e-05
5.9709e-05
5.68561e-05
5.33314e-05
4.99604e-05
4.71973e-05
4.41894e-05
4.02673e-05
3.49519e-05
2.97606e-05
2.8056e-05
3.4138e-05
4.60824e-05
5.91373e-05
7.52994e-05
7.72567e-05
6.33393e-05
4.44432e-05
2.97047e-05
2.21563e-05
2.32853e-05
3.75571e-05
8.46298e-06
5.49703e-07
2.62785e-07
5.70276e-06
1.53247e-05
3.40363e-05
5.36692e-05
6.35875e-05
6.75226e-05
6.85201e-05
6.79705e-05
6.6629e-05
6.47915e-05
6.24541e-05
5.94198e-05
5.57081e-05
5.21207e-05
4.89741e-05
4.64073e-05
4.45902e-05
4.23171e-05
3.78609e-05
3.21301e-05
3.04204e-05
3.41832e-05
3.78155e-05
4.55784e-05
6.11942e-05
6.93851e-05
6.21313e-05
4.61567e-05
3.18786e-05
2.46082e-05
2.65725e-05
3.97814e-05
8.83002e-06
5.74023e-07
2.95533e-07
5.85796e-06
1.59272e-05
3.52306e-05
5.43286e-05
6.36188e-05
6.72685e-05
6.80902e-05
6.75619e-05
6.64319e-05
6.47573e-05
6.23337e-05
5.91928e-05
5.55546e-05
5.14683e-05
4.77195e-05
4.5704e-05
4.53844e-05
4.51912e-05
4.30481e-05
3.86119e-05
3.75217e-05
3.71529e-05
3.53016e-05
4.00637e-05
5.19893e-05
6.18804e-05
6.02244e-05
4.82223e-05
3.479e-05
2.73301e-05
2.94353e-05
4.16594e-05
9.17927e-06
6.01155e-07
3.28719e-07
6.02518e-06
1.66796e-05
3.65312e-05
5.46278e-05
6.34279e-05
6.70145e-05
6.79195e-05
6.73069e-05
6.55942e-05
6.32927e-05
6.08494e-05
5.80746e-05
5.39864e-05
4.89591e-05
4.46647e-05
4.26985e-05
4.34473e-05
4.54659e-05
4.64521e-05
4.56279e-05
4.47503e-05
4.05631e-05
3.64704e-05
3.91568e-05
4.79651e-05
5.71001e-05
5.78236e-05
4.89882e-05
3.74552e-05
3.05118e-05
3.2898e-05
4.33655e-05
9.34336e-06
6.06702e-07
3.52458e-07
6.18404e-06
1.7029e-05
3.67684e-05
5.45835e-05
6.32472e-05
6.66933e-05
6.74653e-05
6.6704e-05
6.49221e-05
6.26175e-05
5.98358e-05
5.63297e-05
5.20157e-05
4.72889e-05
4.29286e-05
4.03034e-05
4.05755e-05
4.39043e-05
4.82911e-05
5.03138e-05
4.91213e-05
4.42621e-05
3.97671e-05
4.00863e-05
4.54377e-05
5.2174e-05
5.38678e-05
4.80089e-05
3.89878e-05
3.35935e-05
3.73997e-05
4.42176e-05
9.45459e-06
6.01617e-07
3.54208e-07
6.19278e-06
1.70352e-05
3.67707e-05
5.4344e-05
6.28874e-05
6.63415e-05
6.71309e-05
6.62327e-05
6.43632e-05
6.20408e-05
5.93862e-05
5.61681e-05
5.22204e-05
4.76448e-05
4.28813e-05
3.90527e-05
3.73933e-05
3.90968e-05
4.35275e-05
4.78826e-05
4.91572e-05
4.61523e-05
4.22525e-05
4.1574e-05
4.49513e-05
5.0091e-05
5.19407e-05
4.79138e-05
4.11461e-05
3.75942e-05
4.26733e-05
4.41418e-05
9.43123e-06
5.84183e-07
3.3822e-07
6.07954e-06
1.6758e-05
3.56537e-05
5.31302e-05
6.22378e-05
6.60033e-05
6.66838e-05
6.55784e-05
6.36693e-05
6.14707e-05
5.92291e-05
5.68616e-05
5.43062e-05
5.07297e-05
4.52991e-05
3.93406e-05
3.49347e-05
3.33378e-05
3.52759e-05
4.04274e-05
4.56019e-05
4.65324e-05
4.44559e-05
4.36855e-05
4.53243e-05
4.83725e-05
4.9431e-05
4.6555e-05
4.21671e-05
4.12817e-05
4.79489e-05
4.29407e-05
9.36397e-06
5.77121e-07
3.0669e-07
5.92009e-06
1.57367e-05
3.37382e-05
5.22348e-05
6.18553e-05
6.56374e-05
6.6491e-05
6.56531e-05
6.37726e-05
6.14684e-05
5.92008e-05
5.69949e-05
5.43733e-05
5.18496e-05
4.95949e-05
4.55219e-05
3.86524e-05
3.23641e-05
2.90568e-05
2.95973e-05
3.56562e-05
4.16334e-05
4.29636e-05
4.39183e-05
4.58615e-05
4.81568e-05
4.87062e-05
4.66884e-05
4.44318e-05
4.59558e-05
5.30334e-05
4.15857e-05
9.35834e-06
5.76925e-07
2.94039e-07
5.84748e-06
1.54675e-05
3.30384e-05
5.09985e-05
6.10188e-05
6.55119e-05
6.69612e-05
6.63356e-05
6.44327e-05
6.15061e-05
5.77667e-05
5.47055e-05
5.35965e-05
5.3049e-05
5.20875e-05
5.01774e-05
4.63567e-05
3.90524e-05
3.07796e-05
2.60597e-05
2.7823e-05
3.29352e-05
3.77371e-05
4.26343e-05
4.51059e-05
4.67276e-05
4.72604e-05
4.65013e-05
4.64863e-05
5.02816e-05
5.66322e-05
4.03352e-05
9.37403e-06
5.84353e-07
2.90863e-07
5.78167e-06
1.50254e-05
3.18769e-05
5.00853e-05
6.06199e-05
6.53789e-05
6.69375e-05
6.58525e-05
6.27901e-05
5.8468e-05
5.55116e-05
5.49388e-05
5.54712e-05
5.63733e-05
5.64208e-05
5.47024e-05
5.07798e-05
4.4477e-05
3.60842e-05
2.8076e-05
2.59161e-05
2.73049e-05
3.02722e-05
3.6876e-05
4.25522e-05
4.5482e-05
4.64499e-05
4.70834e-05
4.91474e-05
5.43685e-05
5.89254e-05
3.90899e-05
9.41354e-06
6.01275e-07
3.00223e-07
5.77945e-06
1.48708e-05
3.17503e-05
5.01998e-05
6.02361e-05
6.42058e-05
6.50234e-05
6.30128e-05
5.91058e-05
5.54723e-05
5.3505e-05
5.3574e-05
5.58613e-05
5.92735e-05
6.21533e-05
6.27649e-05
5.94526e-05
5.18646e-05
4.17143e-05
3.21841e-05
2.77202e-05
2.55376e-05
2.56918e-05
3.06063e-05
3.69321e-05
4.23567e-05
4.58432e-05
4.82991e-05
5.18545e-05
5.73841e-05
6.00898e-05
3.84723e-05
9.48487e-06
6.16664e-07
3.364e-07
5.92889e-06
1.53392e-05
3.28322e-05
5.08678e-05
5.96069e-05
6.25552e-05
6.18314e-05
5.83156e-05
5.43059e-05
5.08134e-05
4.94155e-05
5.17195e-05
5.73358e-05
6.44674e-05
7.09248e-05
7.46183e-05
7.33866e-05
6.5569e-05
5.24916e-05
3.94226e-05
3.1438e-05
2.58862e-05
2.38618e-05
2.66351e-05
3.17203e-05
3.72835e-05
4.24711e-05
4.70811e-05
5.24212e-05
5.85074e-05
6.01464e-05
3.73193e-05
9.47102e-06
6.31774e-07
3.92709e-07
6.20754e-06
1.63382e-05
3.48709e-05
5.19424e-05
5.90098e-05
6.02128e-05
5.80828e-05
5.44123e-05
4.85669e-05
4.36995e-05
4.37995e-05
4.97806e-05
6.04681e-05
7.28182e-05
8.31469e-05
8.92469e-05
8.95029e-05
8.24431e-05
6.81375e-05
5.10885e-05
3.71971e-05
2.81277e-05
2.40858e-05
2.44611e-05
2.80136e-05
3.27742e-05
3.74019e-05
4.31631e-05
5.04125e-05
5.79494e-05
5.96333e-05
3.5999e-05
9.35063e-06
6.35689e-07
4.55812e-07
6.48977e-06
1.75383e-05
3.76828e-05
5.32526e-05
5.85996e-05
5.88954e-05
5.53041e-05
4.84983e-05
4.07472e-05
3.64763e-05
3.87947e-05
4.87859e-05
6.50076e-05
8.31382e-05
9.7942e-05
0.000105521
0.000105362
9.78991e-05
8.36007e-05
6.68742e-05
4.74324e-05
3.22556e-05
2.53668e-05
2.38129e-05
2.52565e-05
2.87372e-05
3.3602e-05
3.9071e-05
4.60966e-05
5.47246e-05
5.80789e-05
3.47643e-05
9.15815e-06
6.36011e-07
4.79494e-07
6.62764e-06
1.81546e-05
3.86335e-05
5.35303e-05
5.77316e-05
5.57248e-05
5.00003e-05
4.27133e-05
3.59247e-05
3.21017e-05
3.42015e-05
4.51523e-05
6.52445e-05
8.83717e-05
0.000106414
0.00011575
0.000116882
0.000110578
9.80775e-05
8.12397e-05
6.37123e-05
4.31316e-05
2.88161e-05
2.3915e-05
2.39366e-05
2.61281e-05
2.95062e-05
3.43961e-05
4.15978e-05
5.04078e-05
5.60208e-05
3.51468e-05
9.11227e-06
6.45115e-07
4.76525e-07
6.65934e-06
1.85916e-05
4.00594e-05
5.3946e-05
5.64465e-05
5.42264e-05
4.99796e-05
4.365e-05
3.61456e-05
3.05441e-05
2.94695e-05
3.52038e-05
5.12439e-05
7.77417e-05
0.000104089
0.000120935
0.000126221
0.000122559
0.000112401
9.83962e-05
8.19607e-05
5.93919e-05
3.882e-05
2.70037e-05
2.34807e-05
2.43837e-05
2.71115e-05
3.11567e-05
3.71297e-05
4.61779e-05
5.488e-05
3.6211e-05
9.16429e-06
6.57588e-07
4.63927e-07
6.5756e-06
1.84257e-05
3.98282e-05
5.34893e-05
5.63063e-05
5.45274e-05
5.0096e-05
4.42018e-05
3.74893e-05
3.10532e-05
2.74194e-05
2.96063e-05
4.02996e-05
6.17946e-05
9.15286e-05
0.000117921
0.000132126
0.000133614
0.000126061
0.000113478
9.73882e-05
7.67827e-05
5.47461e-05
3.71343e-05
2.68367e-05
2.41069e-05
2.53264e-05
2.80945e-05
3.33258e-05
4.33095e-05
5.47519e-05
3.76775e-05
9.34204e-06
6.81767e-07
4.63558e-07
6.57551e-06
1.84227e-05
3.99314e-05
5.37802e-05
5.66588e-05
5.49266e-05
5.09691e-05
4.57859e-05
3.94219e-05
3.23803e-05
2.69236e-05
2.61064e-05
3.25399e-05
4.93173e-05
7.70039e-05
0.000107814
0.000130309
0.000139076
0.000136482
0.000126023
0.000110791
9.14079e-05
6.93966e-05
4.89956e-05
3.43662e-05
2.6462e-05
2.44657e-05
2.62139e-05
3.16305e-05
4.219e-05
5.50913e-05
3.81445e-05
9.44569e-06
6.94273e-07
4.6379e-07
6.56952e-06
1.84854e-05
4.00821e-05
5.35719e-05
5.63977e-05
5.49368e-05
5.1335e-05
4.66631e-05
4.08998e-05
3.41649e-05
2.78767e-05
2.43079e-05
2.68879e-05
3.83664e-05
6.12242e-05
9.244e-05
0.000120386
0.000136242
0.000138866
0.000131339
0.000117425
9.92514e-05
7.92293e-05
5.92238e-05
4.15645e-05
3.01708e-05
2.53874e-05
2.59865e-05
3.08825e-05
4.17487e-05
5.60097e-05
3.80485e-05
9.48933e-06
6.9389e-07
4.57466e-07
6.53678e-06
1.84663e-05
3.98644e-05
5.32948e-05
5.62319e-05
5.50338e-05
5.20469e-05
4.8479e-05
4.39607e-05
3.76356e-05
3.00962e-05
2.40534e-05
2.22987e-05
2.8239e-05
4.53088e-05
7.41765e-05
0.000105374
0.00012636
0.000133834
0.000131814
0.000120738
0.000103482
8.48241e-05
6.61133e-05
4.89144e-05
3.52656e-05
2.76915e-05
2.63923e-05
3.11678e-05
4.27443e-05
5.68685e-05
3.76864e-05
9.4654e-06
6.78411e-07
4.57593e-07
6.53068e-06
1.84154e-05
3.99529e-05
5.35639e-05
5.67326e-05
5.59998e-05
5.38371e-05
5.09784e-05
4.69815e-05
4.07161e-05
3.23393e-05
2.46122e-05
2.07108e-05
2.29112e-05
3.45397e-05
5.90509e-05
9.22862e-05
0.000119051
0.000129694
0.000129428
0.000121317
0.000106461
8.9107e-05
7.11349e-05
5.41005e-05
4.01269e-05
3.10049e-05
2.79558e-05
3.25276e-05
4.59e-05
5.83353e-05
3.68177e-05
9.42866e-06
6.5634e-07
4.74317e-07
6.57529e-06
1.86589e-05
4.02339e-05
5.35118e-05
5.69977e-05
5.68736e-05
5.51383e-05
5.24499e-05
4.84466e-05
4.21029e-05
3.34149e-05
2.50784e-05
2.02843e-05
2.10066e-05
2.96848e-05
4.98373e-05
8.08634e-05
0.000108756
0.000121295
0.000125123
0.000119997
0.000106782
9.12836e-05
7.48666e-05
5.86492e-05
4.46192e-05
3.49981e-05
3.15173e-05
3.5516e-05
4.79707e-05
5.90713e-05
3.62506e-05
9.38899e-06
6.36627e-07
4.9716e-07
6.66411e-06
1.89811e-05
4.0371e-05
5.3377e-05
5.69578e-05
5.70942e-05
5.55815e-05
5.32104e-05
4.98002e-05
4.42839e-05
3.57677e-05
2.65329e-05
2.0291e-05
1.8874e-05
2.4754e-05
4.20599e-05
6.8925e-05
9.19336e-05
0.000107925
0.000115378
0.000113575
0.0001035
9.10058e-05
7.70032e-05
6.24817e-05
4.92434e-05
3.96549e-05
3.58534e-05
3.96199e-05
5.11899e-05
6.01963e-05
3.60868e-05
9.33421e-06
6.16206e-07
4.98824e-07
6.66936e-06
1.92252e-05
4.10876e-05
5.34283e-05
5.67473e-05
5.69856e-05
5.59431e-05
5.41399e-05
5.1524e-05
4.71475e-05
4.00722e-05
3.05262e-05
2.20547e-05
1.78487e-05
1.92324e-05
3.01456e-05
5.19783e-05
7.35074e-05
9.21401e-05
0.000103323
0.000104676
9.74633e-05
8.78958e-05
7.71476e-05
6.53634e-05
5.39567e-05
4.52762e-05
4.17031e-05
4.50032e-05
5.49075e-05
6.13466e-05
3.64843e-05
9.32561e-06
5.9673e-07
4.91076e-07
6.64818e-06
1.92745e-05
4.09032e-05
5.32573e-05
5.68407e-05
5.73046e-05
5.64978e-05
5.47909e-05
5.2391e-05
4.95117e-05
4.49483e-05
3.70444e-05
2.71493e-05
1.93774e-05
1.64913e-05
1.99559e-05
3.23669e-05
5.28312e-05
7.61585e-05
9.21486e-05
9.66519e-05
9.20913e-05
8.50573e-05
7.70785e-05
6.78961e-05
5.85914e-05
5.10355e-05
4.76236e-05
5.08581e-05
5.93332e-05
6.28414e-05
3.69012e-05
9.39957e-06
5.86017e-07
4.83299e-07
6.57442e-06
1.90926e-05
4.07475e-05
5.31085e-05
5.69386e-05
5.76181e-05
5.68146e-05
5.52052e-05
5.36155e-05
5.22761e-05
5.00153e-05
4.48793e-05
3.5379e-05
2.43576e-05
1.71458e-05
1.54642e-05
2.0071e-05
3.4077e-05
5.75526e-05
7.92059e-05
8.87884e-05
8.76306e-05
8.30516e-05
7.74519e-05
7.10316e-05
6.39523e-05
5.77974e-05
5.4466e-05
5.67769e-05
6.3588e-05
6.47275e-05
3.73708e-05
9.49768e-06
5.85327e-07
4.85378e-07
6.55197e-06
1.89391e-05
4.05302e-05
5.30976e-05
5.72064e-05
5.83757e-05
5.8354e-05
5.76272e-05
5.68234e-05
5.6056e-05
5.44739e-05
5.04668e-05
4.21146e-05
2.98098e-05
1.94123e-05
1.47357e-05
1.58766e-05
2.44894e-05
4.26463e-05
6.51517e-05
8.03384e-05
8.33614e-05
8.06564e-05
7.64764e-05
7.21117e-05
6.76717e-05
6.40446e-05
6.23815e-05
6.33041e-05
6.69907e-05
6.63098e-05
3.78665e-05
9.53994e-06
5.85047e-07
5.07653e-07
6.61193e-06
1.90941e-05
4.03493e-05
5.29141e-05
5.74416e-05
5.91162e-05
5.95883e-05
5.94449e-05
5.92626e-05
5.88044e-05
5.75266e-05
5.39645e-05
4.55398e-05
3.26154e-05
2.10374e-05
1.51123e-05
1.56716e-05
2.16038e-05
3.24297e-05
5.08609e-05
6.73624e-05
7.59221e-05
7.70239e-05
7.51577e-05
7.25808e-05
7.00241e-05
6.78986e-05
6.74548e-05
6.90431e-05
7.13987e-05
6.8378e-05
3.85781e-05
9.56397e-06
5.80667e-07
5.1432e-07
6.61412e-06
1.93359e-05
4.04e-05
5.28307e-05
5.75183e-05
5.9458e-05
6.02879e-05
6.07911e-05
6.06334e-05
5.96576e-05
5.83141e-05
5.67112e-05
5.17758e-05
3.95957e-05
2.56958e-05
1.67492e-05
1.51167e-05
1.76611e-05
2.45294e-05
4.04228e-05
5.57414e-05
6.49146e-05
6.95532e-05
7.03754e-05
6.94977e-05
6.89379e-05
6.92092e-05
7.03616e-05
7.23378e-05
7.42665e-05
6.95875e-05
3.83526e-05
9.55262e-06
5.61361e-07
5.1252e-07
6.60856e-06
1.91337e-05
3.99181e-05
5.26674e-05
5.77901e-05
6.00695e-05
6.09396e-05
6.10669e-05
6.10868e-05
6.12785e-05
6.12836e-05
5.98361e-05
5.64965e-05
4.98077e-05
3.49505e-05
2.06564e-05
1.42437e-05
1.50895e-05
2.08019e-05
2.87539e-05
4.2568e-05
5.40793e-05
6.03954e-05
6.45337e-05
6.67322e-05
6.76473e-05
6.88494e-05
7.10554e-05
7.40148e-05
7.56603e-05
7.032e-05
3.79999e-05
9.55283e-06
5.46615e-07
4.98564e-07
6.49752e-06
1.87989e-05
3.92882e-05
5.23914e-05
5.78436e-05
6.03856e-05
6.15842e-05
6.21373e-05
6.22384e-05
6.22469e-05
6.21631e-05
6.16803e-05
5.96368e-05
5.40621e-05
4.35988e-05
2.94972e-05
1.8466e-05
1.53508e-05
1.56741e-05
1.98332e-05
3.14062e-05
4.42197e-05
5.25678e-05
5.71083e-05
6.09488e-05
6.46263e-05
6.77859e-05
7.08802e-05
7.42079e-05
7.60805e-05
7.00022e-05
3.76047e-05
9.60448e-06
5.38676e-07
4.75967e-07
6.37146e-06
1.8264e-05
3.83657e-05
5.20498e-05
5.79827e-05
6.08348e-05
6.22204e-05
6.29826e-05
6.355e-05
6.41655e-05
6.43073e-05
6.38377e-05
6.29601e-05
6.14406e-05
5.66141e-05
4.40737e-05
2.72357e-05
1.62902e-05
1.4051e-05
1.58954e-05
2.12102e-05
3.27358e-05
4.44019e-05
5.16279e-05
5.55674e-05
5.92537e-05
6.38302e-05
6.86186e-05
7.28604e-05
7.48131e-05
6.86863e-05
3.7098e-05
9.65245e-06
5.3808e-07
4.49273e-07
6.19418e-06
1.74896e-05
3.70228e-05
5.15034e-05
5.80932e-05
6.13643e-05
6.30894e-05
6.42157e-05
6.48618e-05
6.5262e-05
6.52927e-05
6.51562e-05
6.47686e-05
6.40311e-05
6.15646e-05
5.47309e-05
4.05358e-05
2.43501e-05
1.68284e-05
1.37745e-05
1.51213e-05
2.27018e-05
3.32689e-05
4.2787e-05
4.89796e-05
5.35999e-05
5.86906e-05
6.47578e-05
7.09564e-05
7.41661e-05
6.78398e-05
3.61856e-05
9.66615e-06
5.44088e-07
4.26197e-07
6.03419e-06
1.67967e-05
3.56972e-05
5.08093e-05
5.80659e-05
6.17959e-05
6.39178e-05
6.54486e-05
6.61914e-05
6.63463e-05
6.65315e-05
6.6857e-05
6.7149e-05
6.71608e-05
6.57218e-05
6.16857e-05
5.3434e-05
3.93552e-05
2.39644e-05
1.62237e-05
1.32506e-05
1.48697e-05
2.25362e-05
3.34814e-05
4.25275e-05
4.87494e-05
5.43274e-05
6.1649e-05
6.8819e-05
7.258e-05
6.67857e-05
3.58861e-05
9.71294e-06
5.47888e-07
3.98867e-07
5.83535e-06
1.59341e-05
3.40406e-05
4.98269e-05
5.78348e-05
6.2011e-05
6.44224e-05
6.59122e-05
6.64441e-05
6.67026e-05
6.74532e-05
6.84122e-05
6.94324e-05
7.00866e-05
6.99517e-05
6.81239e-05
6.30093e-05
5.26963e-05
3.65031e-05
2.14667e-05
1.4594e-05
1.32757e-05
1.59328e-05
2.33515e-05
3.45505e-05
4.401e-05
5.11612e-05
5.78947e-05
6.50283e-05
6.9895e-05
6.56265e-05
3.64681e-05
9.87223e-06
5.69319e-07
3.74994e-07
5.65802e-06
1.51928e-05
3.26143e-05
4.8868e-05
5.75626e-05
6.21389e-05
6.46815e-05
6.61195e-05
6.68301e-05
6.7852e-05
6.92978e-05
7.07364e-05
7.19699e-05
7.26031e-05
7.20929e-05
6.98519e-05
6.58056e-05
5.94012e-05
4.93438e-05
3.46587e-05
2.17123e-05
1.42053e-05
1.29684e-05
1.69219e-05
2.45864e-05
3.4242e-05
4.34293e-05
5.22862e-05
6.12975e-05
6.76362e-05
6.46453e-05
3.61578e-05
9.89816e-06
5.80573e-07
3.50019e-07
5.44523e-06
1.43735e-05
3.11487e-05
4.78958e-05
5.71426e-05
6.18829e-05
6.4546e-05
6.61604e-05
6.72896e-05
6.8953e-05
7.05875e-05
7.2194e-05
7.33497e-05
7.42992e-05
7.41013e-05
7.30077e-05
7.03609e-05
6.40069e-05
5.41919e-05
4.24302e-05
3.09167e-05
2.07425e-05
1.39266e-05
1.29597e-05
1.7338e-05
2.66138e-05
3.85178e-05
4.85065e-05
5.79424e-05
6.3823e-05
6.32408e-05
3.64782e-05
9.9264e-06
5.79665e-07
3.24798e-07
5.24428e-06
1.3671e-05
2.96683e-05
4.67915e-05
5.65264e-05
6.14805e-05
6.42257e-05
6.5913e-05
6.77105e-05
6.93541e-05
7.10233e-05
7.26185e-05
7.36316e-05
7.40492e-05
7.41101e-05
7.30329e-05
6.9451e-05
6.41737e-05
5.84567e-05
5.19256e-05
4.17443e-05
3.08107e-05
1.99761e-05
1.44063e-05
1.4322e-05
1.83052e-05
2.64414e-05
3.81293e-05
4.88654e-05
5.7714e-05
6.03338e-05
3.6792e-05
1.00209e-05
5.88365e-07
3.09211e-07
5.05602e-06
1.3215e-05
2.90707e-05
4.58373e-05
5.57103e-05
6.09642e-05
6.39359e-05
6.57475e-05
6.73637e-05
6.89082e-05
7.03419e-05
7.16231e-05
7.29995e-05
7.44937e-05
7.53015e-05
7.46295e-05
7.1879e-05
6.65242e-05
6.0214e-05
5.4421e-05
4.90811e-05
4.18623e-05
3.13978e-05
2.40598e-05
1.78608e-05
1.52942e-05
1.81289e-05
2.5044e-05
3.55142e-05
4.78918e-05
5.54985e-05
4.00528e-05
1.06068e-05
7.02047e-07
3.02544e-07
4.97833e-06
1.29434e-05
2.83675e-05
4.54935e-05
5.56033e-05
6.07982e-05
6.37781e-05
6.56199e-05
6.71948e-05
6.85754e-05
6.98184e-05
7.08689e-05
7.22803e-05
7.36831e-05
7.49458e-05
7.52728e-05
7.31e-05
6.79856e-05
6.21734e-05
5.75764e-05
5.41915e-05
5.00568e-05
4.3739e-05
3.88825e-05
2.73835e-05
1.82756e-05
1.59319e-05
1.82532e-05
2.53192e-05
3.68465e-05
4.98878e-05
4.26451e-05
1.103e-05
8.04571e-07
2.96964e-07
4.89018e-06
1.26484e-05
2.79455e-05
4.49994e-05
5.50737e-05
6.02242e-05
6.30869e-05
6.48076e-05
6.632e-05
6.76244e-05
6.86406e-05
6.98382e-05
7.09948e-05
7.21227e-05
7.34968e-05
7.39462e-05
7.21938e-05
6.75281e-05
6.20508e-05
5.81094e-05
5.61102e-05
5.59737e-05
5.52172e-05
5.45679e-05
4.16227e-05
2.52541e-05
1.78012e-05
1.60716e-05
1.93296e-05
2.87247e-05
4.51997e-05
4.59313e-05
1.13036e-05
8.61172e-07
2.9698e-07
4.82579e-06
1.25386e-05
2.78272e-05
4.48469e-05
5.46727e-05
5.96008e-05
6.22523e-05
6.38228e-05
6.51671e-05
6.62595e-05
6.70671e-05
6.76069e-05
6.80361e-05
6.89553e-05
6.98002e-05
7.02244e-05
6.93847e-05
6.60875e-05
6.16709e-05
5.84884e-05
5.69222e-05
5.76763e-05
6.50981e-05
6.82336e-05
5.4796e-05
3.69564e-05
2.31635e-05
1.73025e-05
1.70395e-05
2.28167e-05
3.82903e-05
4.9561e-05
1.16768e-05
8.84764e-07
3.03519e-07
4.82391e-06
1.25815e-05
2.80591e-05
4.49699e-05
5.4263e-05
5.87749e-05
6.10595e-05
6.24922e-05
6.35939e-05
6.44684e-05
6.49398e-05
6.50023e-05
6.50148e-05
6.52048e-05
6.60311e-05
6.69563e-05
6.7373e-05
6.57328e-05
6.23535e-05
5.95022e-05
5.82468e-05
5.92507e-05
6.86852e-05
7.49444e-05
6.66349e-05
5.27046e-05
3.36699e-05
2.12286e-05
1.74983e-05
1.9927e-05
3.24295e-05
5.31219e-05
1.20138e-05
8.94606e-07
3.203e-07
4.8699e-06
1.28023e-05
2.85636e-05
4.5057e-05
5.38217e-05
5.80312e-05
6.01003e-05
6.129e-05
6.22949e-05
6.28423e-05
6.30657e-05
6.30125e-05
6.26273e-05
6.23559e-05
6.26889e-05
6.38206e-05
6.50123e-05
6.46607e-05
6.22596e-05
5.93984e-05
5.87404e-05
6.67228e-05
7.59923e-05
7.28814e-05
6.98183e-05
6.48145e-05
4.8806e-05
2.93619e-05
1.92986e-05
1.92567e-05
2.95778e-05
5.44585e-05
1.23889e-05