/*--------------------------------*- C++ -*----------------------------------*\
| =========                 |                                                 |
| \\      /  F ield         | OpenFOAM: The Open Source CFD Toolbox           |
|  \\    /   O peration     | Version:  2.0.x                                 |
|   \\  /    A nd           | Web:      www.OpenFOAM.org                      |
|    \\/     M anipulation  |                                                 |
\*---------------------------------------------------------------------------*/
FoamFile
{
    version     2.0;
    format      ascii;
    class       volScalarField;
    location    "350";
    object      omega;
}
// * * * * * * * * * * * * * * * * * * * * * * * * * * * * * * * * * * * * * //

dimensions      [0 0 -1 0 0 0 0];

internalField   nonuniform List<scalar> 
78750
(
1022.15
5.33921
5.79196
6.01418
6.17664
6.33917
6.48352
6.61355
6.7301
6.83273
6.91905
6.98552
7.03707
7.08001
7.11145
7.13444
7.17865
7.20523
7.22658
7.2256
7.21604
7.20097
7.18
7.15466
7.12328
7.09129
7.05811
7.02288
6.9849
6.94317
6.89562
6.83952
6.75844
6.43941
1092.01
1022.05
4.72875
5.13662
5.54238
5.96303
6.34099
6.6776
6.95691
7.19761
7.40564
7.56366
7.67539
7.75904
7.81561
7.85595
7.85473
7.82634
7.77833
7.72971
7.68065
7.63158
7.5832
7.53588
7.49125
7.44764
7.39448
7.33619
7.27424
7.20821
7.13566
7.05494
6.96348
6.82179
6.48126
1093.29
1022
4.92324
5.71901
6.40714
6.96837
7.3955
7.69613
7.90289
8.02983
8.08939
8.11407
8.11057
8.09366
8.04721
7.98594
7.91796
7.84307
7.76521
7.68105
7.59215
7.50275
7.42066
7.34531
7.27999
7.23306
7.20576
7.1913
7.18076
7.16342
7.12404
7.05449
6.96356
6.82665
6.65102
1094.51
1022.12
5.46247
6.47711
7.16992
7.5816
7.81322
7.95294
8.04332
8.10305
8.1399
8.15244
8.14657
8.11469
8.05895
7.98493
7.89331
7.78241
7.63801
7.48036
7.31826
7.16621
7.02365
6.89651
6.80934
6.7604
6.75327
6.77563
6.83394
6.89823
6.94989
6.961
6.91917
6.82752
6.72923
1094.59
1022.43
5.89011
6.84646
7.4022
7.73446
7.95992
8.12585
8.24749
8.32883
8.37087
8.37446
8.35012
8.28814
8.19565
8.07639
7.93685
7.78404
7.61839
7.44116
7.25371
7.05507
6.86663
6.69931
6.57054
6.48867
6.45925
6.48006
6.55915
6.66278
6.75975
6.82083
6.83022
6.79458
6.71883
1094.34
1022.68
6.13793
7.0574
7.59267
7.90717
8.11135
8.2531
8.34946
8.40831
8.43398
8.42992
8.39575
8.33401
8.24558
8.13208
7.99668
7.83944
7.66024
7.46231
7.25391
7.04383
6.83618
6.63948
6.47174
6.35216
6.28777
6.29176
6.36368
6.48095
6.60456
6.70308
6.75225
6.74212
6.66039
1094.13
1022.87
6.25798
7.14174
7.66025
7.97608
8.19296
8.35324
8.47079
8.5506
8.59473
8.60433
8.58331
8.52999
8.44711
8.33655
8.20083
8.04469
7.86777
7.66966
7.45237
7.22201
6.98863
6.7617
6.55036
6.376
6.25696
6.20304
6.22524
6.32527
6.46055
6.58828
6.67167
6.68054
6.60275
1094.04
1022.97
6.3402
7.22521
7.74622
8.06253
8.27839
8.43594
8.54968
8.62611
8.66891
8.68053
8.66313
8.61778
8.5459
8.44862
8.32733
8.18421
8.01943
7.83178
7.62183
7.39304
7.15293
6.91005
6.67065
6.45305
6.28435
6.18544
6.16304
6.21915
6.34811
6.49057
6.59688
6.62038
6.55614
1094.02
1023.03
6.37149
7.25303
7.78597
8.11868
8.35113
8.52532
8.65605
8.74955
8.80908
8.83673
8.8343
8.80328
8.74475
8.65997
8.55028
8.41748
8.26441
8.0898
7.89203
7.67102
7.42979
7.17557
6.91388
6.65455
6.42423
6.24595
6.16404
6.16947
6.27098
6.41695
6.53702
6.57115
6.51936
1094.02
1023.04
6.39292
7.28773
7.83313
8.17547
8.41468
8.59349
8.72768
8.82449
8.88818
8.92156
8.92684
8.90632
8.86058
8.79084
8.69789
8.58255
8.44614
8.28928
8.10997
7.9065
7.67925
7.43342
7.17364
6.89787
6.62215
6.38371
6.21357
6.17233
6.21613
6.3474
6.47744
6.52687
6.49904
1094.1
1023.05
6.39924
7.30189
7.86822
8.23365
8.49153
8.6856
8.8336
8.94362
9.02027
9.06648
9.08446
9.07649
9.04375
8.98728
8.90803
8.80677
8.68425
8.54172
8.37896
8.19284
7.98099
7.74381
7.486
7.20755
6.90941
6.61897
6.37228
6.21915
6.21693
6.30493
6.43722
6.50225
6.50071
1094.19
1023.04
6.40706
7.32901
7.91051
8.28717
8.55485
8.75676
8.91051
9.02536
9.10694
9.15888
9.18381
9.18407
9.16239
9.11875
9.05435
8.96968
8.86499
8.74042
8.59692
8.43105
8.23904
8.01871
7.77226
7.49934
7.1887
6.8472
6.53163
6.30555
6.23692
6.29985
6.41965
6.49003
6.50568
1094.22
1023.02
6.4196
7.36375
7.96944
8.3649
8.64645
8.86022
9.02454
9.14851
9.2388
9.29937
9.33322
9.34258
9.33133
9.29918
9.24754
9.17711
9.08807
8.98028
8.8543
8.70953
8.54168
8.34594
8.11917
7.86103
7.56171
7.20743
6.82257
6.47716
6.29365
6.30552
6.41604
6.49025
6.51013
1094.3
1023
6.43832
7.41252
8.03681
8.44161
8.72842
8.94672
9.11652
9.24557
9.33927
9.40296
9.44096
9.45547
9.45066
9.42765
9.38741
9.33075
9.25761
9.16727
9.05952
8.93483
8.78893
8.61692
8.41641
8.18916
7.92758
7.60137
7.20042
6.78116
6.45115
6.34602
6.41554
6.49149
6.53487
1094.48
1023.01
6.49151
7.50267
8.14726
8.56013
8.84954
9.06978
9.2424
9.37656
9.47715
9.54705
9.58887
9.60644
9.60579
9.58944
9.55762
9.51161
9.45099
9.37451
9.28097
9.16956
9.0367
8.87715
8.68815
8.47293
8.22848
7.92823
7.55376
7.12921
6.70385
6.45714
6.45055
6.51577
6.59017
1094.69
1023.04
6.56341
7.60988
8.26295
8.67299
8.9567
9.17143
9.33971
9.47155
9.57268
9.64674
9.69575
9.72113
9.72376
9.71266
9.68806
9.65332
9.60629
9.54452
9.46601
9.36938
9.24996
9.10209
8.92308
8.71578
8.47849
8.19019
7.8385
7.43248
6.97234
6.61166
6.51059
6.5492
6.64226
1094.89
1023.14
6.70554
7.77919
8.4278
8.82405
9.094
9.29688
9.45557
9.57998
9.67619
9.74793
9.79747
9.82847
9.8446
9.84713
9.84206
9.82573
9.79875
9.75772
9.69882
9.61974
9.51168
9.36824
9.18738
8.9726
8.72437
8.42816
8.08208
7.69329
7.23561
6.81022
6.62306
6.63043
6.73016
1095.15
1023.29
6.8562
7.93875
8.56922
8.94514
9.19797
9.38596
9.53115
9.64346
9.7302
9.79499
9.83766
9.86615
9.88691
9.90606
9.92752
9.94815
9.97164
9.98097
9.9704
9.92202
9.82572
9.67785
9.47851
9.23139
8.947
8.62551
8.27723
7.89958
7.45233
6.99319
6.73213
6.70706
6.82286
1095.38
1023.53
7.06071
8.12473
8.7251
9.07545
9.3082
9.47872
9.60678
9.70133
9.76811
9.81433
9.84792
9.87235
9.89386
9.91958
9.95986
10.0287
10.115
10.1791
10.2087
10.1896
10.1058
9.96101
9.75907
9.50365
9.19585
8.84689
8.47289
8.07425
7.63236
7.1788
6.88949
6.83419
6.9322
1095.39
1023.75
7.20044
8.23379
8.81174
9.14707
9.36828
9.52712
9.64165
9.72088
9.77169
9.79923
9.81
9.81213
9.8192
9.8486
9.91875
10.0365
10.1821
10.3375
10.4341
10.4345
10.3631
10.215
10.0081
9.7508
9.44297
9.07707
8.63592
8.10935
7.62838
7.2163
6.97244
6.93223
7.00057
1095.17
1023.92
7.29655
8.31672
8.88335
9.21332
9.43041
9.58284
9.68807
9.7534
9.78584
9.7944
9.77683
9.74063
9.70586
9.70638
9.76912
9.9198
10.1433
10.3647
10.5249
10.6068
10.5931
10.4925
10.324
10.0924
9.79785
9.42152
8.91852
8.27002
7.64306
7.25117
7.05798
7.00412
6.99274
1094.8
1023.93
7.30559
8.32661
8.9047
9.2422
9.46573
9.62308
9.72988
9.79301
9.81634
9.80936
9.78327
9.73976
9.68607
9.62805
9.59017
9.63633
9.83294
10.1331
10.4212
10.6207
10.7171
10.7273
10.6532
10.4992
10.2637
9.92372
9.42805
8.71031
7.8426
7.27664
7.08649
7.04357
6.99555
1094.78
1023.83
7.27159
8.3211
8.91869
9.26896
9.50314
9.67273
9.79508
9.87689
9.9201
9.92607
9.89518
9.83081
9.73999
9.63805
9.54429
9.47616
9.45014
9.56127
9.8886
10.2713
10.5689
10.7452
10.8168
10.8015
10.6938
10.4774
10.1102
9.51111
8.61211
7.64601
7.16901
7.05868
7.00745
1094.94
1023.72
7.22278
8.30478
8.92366
9.28841
9.53115
9.7065
9.83379
9.92206
9.977
10.0024
10.0021
9.9771
9.92453
9.84007
9.7217
9.57739
9.43607
9.3465
9.388
9.66909
10.0978
10.4448
10.6733
10.7945
10.8237
10.7601
10.5524
10.1347
9.39449
8.35552
7.50052
7.18705
7.0899
1095.23
1023.63
7.19882
8.30203
8.94603
9.32686
9.58036
9.76476
9.90047
9.99588
10.0556
10.0831
10.0832
10.0621
10.022
9.9652
9.88922
9.78754
9.65388
9.49714
9.36401
9.37649
9.62502
10.0172
10.3671
10.6131
10.7459
10.7709
10.6905
10.4173
9.83879
8.90093
7.91781
7.41212
7.2147
1095.39
1023.62
7.19752
8.32047
8.98029
9.37002
9.62835
9.81682
9.95743
10.0592
10.1275
10.1658
10.1768
10.1665
10.1343
10.0821
10.01
9.9171
9.80105
9.6609
9.50165
9.37405
9.4202
9.71915
10.0863
10.3964
10.6013
10.7
10.6754
10.4686
9.9908
9.1733
8.23752
7.66635
7.36658
1095.44
1023.65
7.24404
8.38448
9.04459
9.43344
9.69222
9.88247
10.0248
10.1272
10.196
10.2357
10.2502
10.2459
10.2265
10.1943
10.1481
10.0827
9.99079
9.86523
9.70001
9.5128
9.40634
9.52198
9.85776
10.2124
10.4656
10.5976
10.602
10.444
10.0169
9.29051
8.44747
7.87407
7.50091
1095.49
1023.77
7.33061
8.46316
9.11071
9.49234
9.74817
9.93868
10.0846
10.1922
10.2664
10.3114
10.331
10.331
10.3176
10.2976
10.2751
10.2445
10.1953
10.1096
9.96521
9.75479
9.53891
9.48173
9.63277
9.96627
10.2727
10.46
10.5115
10.4012
10.0405
9.39812
8.63261
8.06919
7.65522
1095.69
1024
7.46094
8.56115
9.18417
9.55248
9.80077
9.98418
10.1229
10.2256
10.2984
10.3464
10.374
10.386
10.388
10.3845
10.3916
10.426
10.4669
10.4657
10.3933
10.2163
9.96427
9.75894
9.7345
9.91789
10.1729
10.3587
10.4313
10.3566
10.0517
9.48179
8.77826
8.2335
7.81233
1095.91
1024.23
7.55885
8.61806
9.22343
9.58635
9.83351
10.0148
10.1494
10.2483
10.3181
10.3638
10.3889
10.3987
10.3983
10.391
10.3991
10.4407
10.5184
10.6084
10.6344
10.5601
10.3968
10.2032
10.0567
10.0561
10.2054
10.3648
10.4332
10.3646
10.097
9.58447
8.9327
8.39793
7.95228
1095.96
1024.41
7.58415
8.62468
9.23115
9.59772
9.84779
10.0312
10.1649
10.2629
10.3326
10.3798
10.4051
10.4084
10.3997
10.3827
10.367
10.3973
10.5024
10.6341
10.7416
10.784
10.7334
10.6094
10.4609
10.3759
10.3953
10.4554
10.4763
10.3878
10.1239
9.64477
9.04542
8.53029
8.06315
1095.93
1024.43
7.58883
8.62047
9.23171
9.60119
9.8528
10.04
10.1816
10.2907
10.3714
10.4275
10.4618
10.4688
10.4458
10.3993
10.3462
10.3045
10.3005
10.4237
10.6281
10.7938
10.8755
10.8647
10.7763
10.6728
10.6199
10.6117
10.5851
10.4709
10.2037
9.74609
9.18101
8.66123
8.1423
1095.79
1024.34
7.51133
8.56228
9.19546
9.58031
9.84372
10.0327
10.1816
10.2964
10.3912
10.4784
10.5542
10.6055
10.6161
10.5698
10.4629
10.3214
10.2039
10.1857
10.2889
10.5413
10.7829
10.9267
10.9704
10.9275
10.8513
10.7863
10.7067
10.5568
10.2763
9.83423
9.30496
8.78469
8.2153
1095.73
1024.12
7.41829
8.51369
9.17788
9.57619
9.83838
10.0302
10.1776
10.2953
10.393
10.4916
10.5952
10.6965
10.7744
10.803
10.7609
10.6366
10.4341
10.2037
10.0552
10.0805
10.385
10.7272
10.9366
11.0002
10.9923
10.9262
10.8186
10.6425
10.3505
9.92207
9.42138
8.89562
8.27533
1095.72
1024.02
7.41095
8.51208
9.17758
9.57968
9.84508
10.0355
10.179
10.2967
10.4073
10.5246
10.6574
10.797
10.9179
10.9886
10.9878
10.9139
10.7553
10.5233
10.2436
10.0202
10.0172
10.2598
10.64
10.903
10.986
10.9751
10.8857
10.7038
10.411
10.0027
9.53079
9.0052
8.34262
1095.76
1023.99
7.41897
8.54089
9.21285
9.6163
9.87746
10.0616
10.1992
10.3083
10.4184
10.5521
10.7285
10.9355
11.1309
11.266
11.3084
11.2576
11.1059
10.8683
10.5586
10.2208
9.99116
10.0154
10.2746
10.6273
10.8792
10.9578
10.8933
10.7299
10.4482
10.0643
9.61973
9.10022
8.41472
1095.89
1024.04
7.50729
8.64587
9.29664
9.67464
9.91559
10.0849
10.2105
10.3161
10.4302
10.5923
10.8254
11.1159
11.3993
11.6038
11.6887
11.6577
11.5144
11.2657
10.9204
10.5125
10.1463
9.98722
10.0606
10.3195
10.5948
10.7953
10.8455
10.7237
10.4685
10.1176
9.69931
9.18866
8.49052
1096.01
1024.28
7.67548
8.78345
9.3875
9.72974
9.94534
10.0919
10.1927
10.2823
10.4006
10.6144
10.9545
11.369
11.7683
12.0547
12.189
12.1759
12.0293
11.7472
11.3482
10.8718
10.3934
10.064
9.98978
10.116
10.3546
10.5584
10.6562
10.6249
10.444
10.1366
9.75409
9.26671
8.56716
1096.13
1024.66
7.88674
8.93156
9.47892
9.78128
9.96233
10.0777
10.1574
10.2287
10.337
10.5677
10.9948
11.5428
12.0518
12.4091
12.5829
12.6148
12.515
12.2776
11.8908
11.3479
10.7411
10.2514
9.9991
10.0091
10.1731
10.367
10.484
10.4813
10.3486
10.108
9.7811
9.32882
8.63828
1096.18
1025.1
8.05148
9.02386
9.5248
9.79415
9.95555
10.0477
10.0959
10.1358
10.2189
10.4514
10.9327
11.5694
12.1352
12.55
12.8256
12.9317
12.8863
12.7092
12.3873
11.9018
11.2566
10.56
10.1137
9.98883
10.0591
10.2197
10.3423
10.3635
10.2677
10.0604
9.77491
9.36325
8.68928
1096.21
1025.3
8.09582
9.0382
9.52911
9.7872
9.93744
10.0265
10.0601
10.0408
10.0558
10.2123
10.6273
11.3032
11.9917
12.5175
12.8639
13.0624
13.1368
13.0662
12.8474
12.4622
11.8998
11.1745
10.417
10.0215
9.98923
10.0942
10.2204
10.2651
10.2024
10.0279
9.77237
9.39994
8.76471
1096.3
1025.29
8.10164
9.0376
9.51002
9.77027
9.92933
10.0184
10.0498
10.0287
9.97831
9.97258
10.1753
10.7005
11.457
12.1501
12.6703
13.0226
13.2195
13.2866
13.2097
12.9764
12.5704
11.97
11.1707
10.3624
10.0095
10.0132
10.1024
10.176
10.1489
10.0053
9.78109
9.43989
8.83606
1096.38
1025.21
8.06304
8.99972
9.48807
9.75499
9.91722
10.0109
10.045
10.0222
9.96638
9.9012
9.96145
10.2992
10.9355
11.6911
12.3343
12.8134
13.1435
13.3343
13.3976
13.319
13.0818
12.66
12.0205
11.184
10.3701
10.0323
10.0323
10.077
10.0781
9.97617
9.77631
9.469
8.90246
1096.55
1025.21
8.05891
8.99643
9.48115
9.74789
9.91295
10.0123
10.0428
10.0227
9.96117
9.88192
9.84731
10.0382
10.569
11.2995
12.0065
12.5662
12.9819
13.2699
13.4308
13.4669
13.3638
13.0972
12.6343
11.9468
11.1002
10.3562
10.0447
10.0376
10.0235
9.93874
9.76793
9.49271
8.951
1096.62
1025.22
8.05198
8.98067
9.4636
9.73345
9.90428
10.0109
10.0435
10.0271
9.96812
9.88336
9.80326
9.80236
10.1481
10.8232
11.5773
12.2235
12.7222
13.0955
13.3541
13.4861
13.4862
13.3354
13.0004
12.4506
11.6895
10.8621
10.2684
10.0476
10.004
9.91435
9.75699
9.49903
8.96791
1096.6
1025.18
8.03336
8.96095
9.44587
9.71987
9.8956
10.0049
10.0475
10.0424
9.99315
9.90844
9.81057
9.74999
9.81639
10.3075
11.0484
11.7605
12.3391
12.7904
13.1349
13.3701
13.4711
13.4202
13.192
12.7557
12.1005
11.2972
10.5692
10.1486
10.0026
9.8895
9.73853
9.49036
8.95919
1096.47
1025.17
8.03095
8.94782
9.43021
9.70698
9.88811
10.0062
10.0603
10.0654
10.0255
9.94683
9.83941
9.73982
9.74576
10.035
10.6802
11.3815
11.984
12.4692
12.861
13.1647
13.3597
13.4075
13.2753
12.9382
12.3814
11.6462
10.8838
10.3251
10.0402
9.88945
9.7171
9.46225
8.91432
1096.31
1025.28
8.04954
8.94746
9.42455
9.70167
9.88625
10.0103
10.0678
10.0762
10.0393
9.96175
9.85292
9.74245
9.71808
9.9495
10.5187
11.1838
11.7585
12.2406
12.6475
12.9822
13.2268
13.3489
13.3025
13.0524
12.5851
11.9238
11.1742
10.5354
10.1315
9.89895
9.70088
9.42728
8.85991
1096.17
1025.44
8.06809
8.9434
9.41235
9.68989
9.87926
10.0114
10.0774
10.094
10.0669
9.99631
9.88543
9.74967
9.67371
9.75963
10.2151
10.8787
11.4748
11.9783
12.418
12.7873
13.0744
13.258
13.2948
13.1258
12.7426
12.1575
11.4452
10.7672
10.2677
9.94118
9.69806
9.38792
8.80217
1096.03
1025.46
8.05564
8.91913
9.38575
9.66575
9.85922
9.99358
10.0778
10.1074
10.096
10.0428
9.94968
9.81831
9.67256
9.6245
9.82882
10.3971
11.0535
11.6324
12.1266
12.5386
12.8669
13.0998
13.1982
13.1217
12.8315
12.3346
11.6881
11.0179
10.4604
10.0524
9.73245
9.38377
8.74815
1095.89
1025.42
8.01865
8.88012
9.351
9.63903
9.84323
9.99043
10.0857
10.1269
10.1299
10.0951
10.0239
9.91476
9.76784
9.61778
9.59726
9.85646
10.4499
11.1205
11.708
12.1901
12.5784
12.8717
13.0417
13.053
12.853
12.4516
11.8862
11.2516
10.6665
10.1922
9.80137
9.3869
8.71495
1095.82
1025.36
7.98294
8.84042
9.31392
9.60741
9.81911
9.97748
10.0906
10.1445
10.1595
10.1417
10.0913
10.0085
9.88704
9.72264
9.58611
9.59461
9.93709
10.5565
11.1966
11.7567
12.2167
12.5814
12.8316
12.9287
12.843
12.5442
12.0709
11.4942
10.9113
10.3922
9.93372
9.44151
8.72576
1095.81
1025.37
7.96219
8.80989
9.2874
9.58748
9.80574
9.97065
10.0921
10.1559
10.1838
10.1782
10.1398
10.0699
9.96712
9.82636
9.65652
9.58025
9.74149
10.2122
10.8019
11.3483
11.8404
12.2497
12.5581
12.7241
12.7282
12.5402
12.1759
11.6734
11.1087
10.5629
10.0551
9.5047
8.72604
1095.81
1025.52
7.96113
8.78708
9.26413
9.56901
9.79353
9.96595
10.0967
10.1728
10.2125
10.2166
10.1874
10.1232
10.0221
9.88064
9.70941
9.60736
9.6994
10.0562
10.5741
11.0856
11.5434
11.9607
12.294
12.506
12.5626
12.4543
12.1712
11.7714
11.2882
10.7533
10.2118
9.60339
8.7526
1095.79
1025.57
7.92592
8.74473
9.228
9.54049
9.77231
9.95063
10.0842
10.1783
10.2331
10.2508
10.238
10.1916
10.1098
9.98674
9.81783
9.65153
9.64175
9.90063
10.3674
10.8502
11.2765
11.657
11.9946
12.2368
12.3341
12.2882
12.0966
11.7585
11.3149
10.8314
10.3046
9.67937
8.77227
1095.65
1025.56
7.86814
8.68916
9.18248
9.50467
9.74628
9.93605
10.0824
10.1881
10.2555
10.2896
10.2931
10.2662
10.2032
10.101
9.95137
9.75171
9.63289
9.70274
10.0677
10.5437
10.9832
11.3568
11.6733
11.9161
12.0563
12.0633
11.9249
11.6528
11.2815
10.8301
10.3378
9.72763
8.78955
1095.55
1025.47
7.79133
8.62327
9.13075
9.46362
9.71405
9.91315
10.071
10.1911
10.2728
10.3254
10.3459
10.3395
10.2999
10.2225
10.1
9.92325
9.70564
9.62433
9.76678
10.1988
10.6627
11.0515
11.3722
11.6214
11.781
11.8325
11.7565
11.5468
11.2267
10.8267
10.3637
9.77217
8.82248
1095.5
1025.31
7.69811
8.54776
9.07342
9.4193
9.68032
9.89042
10.0613
10.198
10.29
10.359
10.4021
10.4152
10.4002
10.3508
10.2634
10.129
9.93135
9.69107
9.62846
9.8423
10.2947
10.7292
11.0773
11.3415
11.5185
11.5928
11.5507
11.3954
11.1347
10.7857
10.3612
9.78948
8.84635
1095.49
1025.13
7.59446
8.46363
9.0104
9.37044
9.64124
9.86042
10.0416
10.1926
10.2994
10.3863
10.4492
10.486
10.4931
10.4699
10.4095
10.3066
10.1495
9.9218
9.67104
9.62761
9.89963
10.3455
10.7494
11.0607
11.2777
11.3918
11.3901
11.2732
11.0511
10.7458
10.3605
9.82084
8.89138
1095.53
1024.97
7.50119
8.3875
8.95499
9.33004
9.61148
9.84013
10.0312
10.1927
10.315
10.4182
10.4991
10.5563
10.5866
10.5888
10.5588
10.4889
10.3708
10.1911
9.9376
9.67438
9.632
9.93872
10.385
10.7571
11.0159
11.1656
11.2003
11.1222
10.939
10.673
10.3274
9.82426
8.91529
1095.56
1024.78
7.39197
8.29888
8.89087
9.28306
9.57556
9.81345
10.0148
10.1907
10.3265
10.4463
10.5456
10.6231
10.6775
10.7043
10.7034
10.6666
10.5855
10.4484
10.2381
9.94443
9.68801
9.68632
10.0116
10.4545
10.7912
10.9915
11.0648
11.0232
10.8703
10.6336
10.3174
9.84967
8.97813
1095.72
1024.61
7.30016
8.22219
8.83647
9.24622
9.54974
9.79585
10.005
10.1874
10.3426
10.4808
10.5971
10.6925
10.7667
10.8187
10.8437
10.8379
10.7903
10.6877
10.5167
10.2624
9.93136
9.68173
9.72269
10.0621
10.4517
10.7296
10.8749
10.89
10.791
10.5885
10.2984
9.85157
9.00706
1095.8
1024.43
7.20462
8.14536
8.78463
9.21023
9.52283
9.77634
9.99486
10.1943
10.3647
10.523
10.6556
10.7692
10.8625
10.9376
10.9916
11.019
11.0121
10.9569
10.8326
10.615
10.2966
9.91946
9.69628
9.81938
10.2044
10.5437
10.7173
10.7519
10.6817
10.509
10.2458
9.83424
9.0164
1095.8
1024.26
7.1226
8.08075
8.74042
9.1802
9.49998
9.75671
9.97548
10.1738
10.3703
10.5451
10.7043
10.846
10.9609
11.0606
11.1429
11.2038
11.2362
11.2309
11.1656
11.013
10.7535
10.3799
9.96156
9.75349
9.89066
10.2557
10.5548
10.6645
10.6318
10.4754
10.2364
9.83727
9.02959
1095.9
1024.16
7.06523
8.03898
8.7087
9.15538
9.47905
9.73803
9.95949
10.1604
10.3556
10.5451
10.7188
10.8732
11.0165
11.1549
11.2815
11.3971
11.4926
11.551
11.5458
11.4604
11.2575
10.9382
10.5044
10.0535
9.83556
9.89091
10.1848
10.4556
10.5392
10.4716
10.2554
9.89968
9.19583
1096.77
1024.12
7.04541
8.0214
8.69636
9.1439
9.46626
9.72431
9.94654
10.153
10.3514
10.5368
10.7074
10.8679
11.0285
11.1752
11.3207
11.4668
11.6091
11.7432
11.8457
11.8723
11.7857
11.505
11.0541
10.5631
10.1166
9.88127
9.91771
10.1483
10.3682
10.3938
10.2622
9.95851
9.35572
1097.51
1024.08
7.0351
8.01833
8.69371
9.13438
9.45226
9.70527
9.92184
10.1257
10.3242
10.5132
10.6856
10.8467
11.0036
11.172
11.3531
11.5312
11.7143
11.8908
12.048
12.1576
12.1622
12.0349
11.6916
11.1961
10.6454
10.1363
9.9016
9.94574
10.1819
10.3024
10.2449
9.99466
9.47995
1097.92
1024.08
7.03528
8.01776
8.68693
9.1337
9.44239
9.68987
9.90136
10.1008
10.2976
10.4865
10.6592
10.8248
10.9933
11.1676
11.3564
11.5421
11.7449
11.9534
12.1585
12.3389
12.4465
12.4266
12.2527
11.913
11.4057
10.7286
10.1305
9.9496
10.0248
10.1908
10.1852
10.0017
9.56943
1098.09
1024.13
7.08148
8.05142
8.69787
9.12828
9.43286
9.67381
9.87686
10.0678
10.2601
10.4496
10.6271
10.7977
10.9695
11.1531
11.3611
11.5732
11.8054
12.0456
12.287
12.5135
12.6885
12.764
12.7156
12.5154
12.1456
11.5726
10.8132
10.1367
10.0064
10.0736
10.1021
9.9849
9.60662
1098.16
1024.25
7.14601
8.09248
8.71854
9.13413
9.42849
9.66069
9.85392
10.0325
10.2188
10.4083
10.5921
10.7687
10.9467
11.1372
11.3507
11.5945
11.8626
12.1394
12.4259
12.7035
12.941
13.0904
13.1211
13.0331
12.7579
12.2983
11.6403
10.8087
10.1565
10.0741
10.0569
9.95208
9.63863
1098.39
1024.48
7.24522
8.14752
8.74336
9.14263
9.42379
9.64443
9.82584
9.98839
10.1639
10.3513
10.5413
10.7224
10.9037
11.0998
11.3292
11.6064
11.9053
12.2243
12.5559
12.8768
13.1634
13.3712
13.4736
13.4538
13.2811
12.9262
12.3786
11.6052
10.6842
10.1409
10.0561
9.93706
9.64702
1098.46
1024.79
7.32429
8.17801
8.7522
9.13442
9.40793
9.61807
9.78891
9.94098
10.0979
10.2751
10.4653
10.6507
10.8301
11.0184
11.243
11.5222
11.8626
12.2457
12.6304
12.9957
13.3118
13.5479
13.6903
13.7246
13.6389
13.3869
12.9611
12.3119
11.4052
10.5245
10.1151
9.93941
9.64457
1098.43
1025.01
7.34456
8.18508
8.75608
9.12846
9.38947
9.58714
9.74651
9.88787
10.0308
10.2009
10.3926
10.582
10.7462
10.8946
11.0878
11.3528
11.7179
12.1615
12.6277
13.0499
13.3998
13.6616
13.8345
13.9016
13.8496
13.6537
13.2844
12.6824
11.8108
10.875
10.3007
9.9978
9.61646
1097.84
1025.01
7.3376
8.16711
8.72422
9.09193
9.348
9.5411
9.69803
9.84017
9.98617
10.1504
10.3407
10.5371
10.6947
10.8158
10.879
11.0229
11.3367
11.8006
12.3383
12.8492
13.2771
13.602
13.8087
13.8911
13.8457
13.6566
13.2901
12.7011
11.8916
11.0353
10.4406
10.0191
9.44302
1096.89
1024.77
7.24656
8.11678
8.69385
9.05981
9.31096
9.49611
9.64328
9.77809
9.92702
10.1104
10.3311
10.5367
10.6971
10.7928
10.86
10.9033
10.9712
11.2854
11.7961
12.3686
12.8995
13.3228
13.6023
13.7278
13.7164
13.5484
13.1923
12.6229
11.8778
11.1307
10.5487
10.0205
9.24343
1096.18
1024.63
7.23173
8.11614
8.68719
9.05238
9.29424
9.47251
9.61532
9.74935
9.90432
10.1092
10.3338
10.5787
10.7926
10.918
10.9436
10.9121
10.908
10.986
11.3309
11.8707
12.4567
12.9499
13.2848
13.4459
13.4561
13.3006
12.9646
12.4502
11.8157
11.1856
10.6105
9.99395
9.05698
1095.79
1024.53
7.22967
8.1209
8.69357
9.05047
9.27792
9.44017
9.56992
9.69809
9.863
10.0982
10.3971
10.733
11.0176
11.1895
11.2274
11.154
11.0198
10.9375
11.0156
11.384
11.937
12.4695
12.8593
13.0766
13.1212
12.9976
12.7025
12.2595
11.7306
11.187
10.6411
9.98716
8.95245
1095.66
1024.54
7.28146
8.18406
8.72674
9.05428
9.2686
9.41441
9.52907
9.64842
9.82426
10.1123
10.4864
10.8941
11.2381
11.4568
11.5275
11.4715
11.3106
11.0934
10.9576
11.0459
11.4221
11.9159
12.3422
12.6207
12.7238
12.6632
12.4417
12.0881
11.6513
11.1765
10.6646
9.99074
8.94081
1095.65
1024.68
7.40486
8.28796
8.798
9.08927
9.26655
9.38596
9.47809
9.58633
9.7844
10.1536
10.663
11.1774
11.5744
11.8183
11.9
11.8526
11.6922
11.4396
11.1633
11.0198
11.1084
11.4271
11.8328
12.1644
12.335
12.3397
12.1886
11.912
11.5517
11.1392
10.6634
10.0142
8.95144
1095.76
1024.99
7.54823
8.37821
8.84014
9.09883
9.25116
9.34656
9.41178
9.50107
9.72499
10.1878
10.7664
11.3287
11.798
12.0827
12.1808
12.1639
12.0337
11.8024
11.5093
11.2317
11.1007
11.1594
11.3808
11.6784
11.9017
11.9708
11.8859
11.6756
11.3823
11.0301
10.6108
10.022
9.02126
1095.92
1025.12
7.57842
8.39269
8.84261
9.07881
9.21999
9.29652
9.32986
9.37518
9.56076
10.0272
10.6913
11.311
11.8129
12.1559
12.3552
12.415
12.3594
12.192
11.9349
11.6281
11.3189
11.1504
11.1467
11.2592
11.4661
11.6277
11.6481
11.5237
11.2802
10.9652
10.5874
10.0358
9.07575
1095.98
1025.07
7.56236
8.36099
8.79633
9.03988
9.18597
9.26451
9.28198
9.27078
9.32609
9.63225
10.2494
10.9623
11.5966
12.0847
12.4017
12.5991
12.6767
12.6413
12.4898
12.2385
11.9024
11.5415
11.2696
11.2053
11.2004
11.2518
11.3219
11.3103
11.1788
10.9268
10.5891
10.096
9.2061
1096.37
1024.92
7.49549
8.29308
8.73479
8.98774
9.14765
9.24252
9.27624
9.26238
9.25069
9.38977
9.84562
10.5452
11.2578
11.8627
12.298
12.6141
12.8312
12.9452
12.9517
12.8467
12.6326
12.32
11.9389
11.542
11.2929
11.2421
11.1867
11.131
11.0308
10.8505
10.5752
10.161
9.39492
1097.06
1024.93
7.48829
8.27192
8.70982
8.96382
9.12641
9.2248
9.26215
9.25095
9.22588
9.31296
9.67546
10.3204
11.0325
11.6829
12.1821
12.5615
12.8559
13.0729
13.206
13.2434
13.1785
13.0069
12.7282
12.3572
11.9413
11.527
11.261
11.1257
11.0032
10.8108
10.5642
10.2068
9.55755
1097.63
1025.06
7.47306
8.2199
8.65173
8.91343
9.08989
9.20452
9.25857
9.25157
9.20365
9.18371
9.38763
9.99017
10.7443
11.4532
12.029
12.4698
12.8235
13.1082
13.3247
13.4574
13.4952
13.4335
13.2649
12.9876
12.6113
12.1602
11.7039
11.3125
11.0362
10.8254
10.5724
10.2425
9.65067
1097.82
1025.04
7.40483
8.15271
8.59015
8.86203
9.0525
9.1835
9.25118
9.26042
9.22479
9.18146
9.18254
9.37539
10.0744
10.8958
11.6233
12.1831
12.639
13.023
13.3288
13.5438
13.66
13.6763
13.5867
13.3858
13.073
12.6513
12.148
11.6356
11.2022
10.859
10.5777
10.2567
9.67657
1097.78
1024.83
7.29087
8.0468
8.49847
8.78546
8.99239
9.14555
9.25462
9.2995
9.30082
9.24514
9.18206
9.18029
9.38813
10.1278
10.9907
11.7203
12.3189
12.8265
13.2368
13.5262
13.706
13.7923
13.7697
13.631
13.3701
12.9842
12.4857
11.9277
11.4037
10.9754
10.6358
10.2791
9.66849
1097.59
1024.71
7.20597
7.96219
8.42928
8.73068
8.94889
9.11195
9.22761
9.30263
9.33184
9.32309
9.26668
9.20683
9.27123
9.61926
10.3821
11.2125
11.9199
12.5242
13.0212
13.3921
13.6485
13.7972
13.8504
13.7864
13.5852
13.2376
12.7506
12.1739
11.6002
11.1149
10.7184
10.3026
9.63968
1097.48
1024.75
7.17758
7.917
8.38847
8.7002
8.92795
9.10049
9.22711
9.31012
9.34932
9.35374
9.32901
9.29376
9.30845
9.556
10.1266
10.9045
11.6469
12.2804
12.8079
13.2176
13.5217
13.7333
13.828
13.799
13.645
13.346
12.9012
12.3444
11.7784
11.2726
10.8251
10.3391
9.57683
1097.22
1024.79
7.12533
7.8564
8.33843
8.66271
8.90144
9.08515
9.22482
9.32521
9.385
9.40408
9.38873
9.36075
9.37263
9.56004
10.0383
10.7092
11.418
12.0545
12.5686
12.9818
13.3123
13.5605
13.708
13.7342
13.6098
13.329
12.9037
12.3957
11.8656
11.363
10.8848
10.3315
9.46845
1096.79
1024.7
7.04175
7.78628
8.2831
8.61806
8.86533
9.05734
9.20903
9.329
9.40332
9.44833
9.45559
9.42763
9.40282
9.47293
9.78914
10.3817
11.0633
11.6847
12.2254
12.6846
13.0528
13.3291
13.4993
13.54
13.4445
13.2074
12.8507
12.4044
11.9203
11.4339
10.9326
10.3212
9.34183
1096.43
1024.5
6.94012
7.70864
8.22075
8.56621
8.82486
9.02704
9.1846
9.31082
9.41368
9.49157
9.53235
9.53599
9.4966
9.47254
9.57636
9.9431
10.5981
11.2291
11.7622
12.2332
12.6544
13.0055
13.2443
13.3379
13.294
13.1048
12.7931
12.3964
11.9528
11.4864
10.9758
10.3226
9.3009
1096.31
1024.24
6.82684
7.62524
8.15467
8.50985
8.77907
8.99664
9.17121
9.30896
9.42343
9.52424
9.60984
9.65615
9.65934
9.60383
9.56099
9.65603
10.0269
10.664
11.2708
11.7737
12.2085
12.5755
12.8545
13.0328
13.0704
12.9595
12.7175
12.3774
11.9728
11.5175
11.0077
10.3418
9.30551
1096.32
1024
6.75268
7.57101
8.10487
8.46081
8.73263
8.95705
9.14545
9.30204
9.43329
9.55348
9.67624
9.77722
9.84439
9.8448
9.76826
9.66964
9.6842
10.0324
10.6483
11.2579
11.7592
12.1632
12.4761
12.6848
12.7767
12.7499
12.5901
12.3194
11.9644
11.541
11.0473
10.3888
9.34659
1096.53
1023.89
6.73834
7.55356
8.0767
8.42807
8.7
8.92723
9.1196
9.28517
9.43765
9.57614
9.73203
9.90418
10.0491
10.1157
10.1343
10.0537
9.86941
9.76126
9.98298
10.5838
11.2337
11.7432
12.12
12.3797
12.5192
12.5384
12.4533
12.2526
11.9513
11.5631
11.0899
10.4611
9.46609
1096.95
1023.89
6.73808
7.5515
8.05715
8.39271
8.65792
8.8842
9.07689
9.23836
9.37647
9.51368
9.69043
9.92227
10.151
10.3869
10.5557
10.5633
10.4333
10.1364
9.93723
10.0191
10.5018
11.1387
11.6587
12.0243
12.2505
12.3443
12.3189
12.1698
11.9201
11.5786
11.1493
10.5553
9.59705
1097.47
1024.15
6.85764
7.59409
8.05855
8.37982
8.63673
8.85453
9.04146
9.20237
9.34202
9.46907
9.61213
9.8289
10.1146
10.4134
10.6902
10.9381
11.0102
10.8891
10.4839
10.1194
10.1808
10.6129
11.1868
11.6536
11.9702
12.1428
12.1802
12.1008
11.9035
11.6074
11.2104
10.6609
9.79311
1098.29
1024.37
6.89739
7.59996
8.04197
8.34822
8.59403
8.80358
8.98184
9.13137
9.25835
9.37296
9.49399
9.66952
9.95289
10.3119
10.6929
11.0468
11.3148
11.3912
11.2699
10.8966
10.4282
10.5242
10.9331
11.394
11.7478
11.9638
12.0477
12.0176
11.8668
11.6106
11.2701
10.7816
9.98044
1098.55
1024.59
6.95836
7.60994
8.02941
8.32323
8.56283
8.76708
8.93953
9.08251
9.20085
9.30184
9.39872
9.52008
9.73941
10.1036
10.5464
10.9895
11.3546
11.5639
11.5627
11.3167
10.8382
10.6068
10.894
11.2549
11.5663
11.7907
11.9145
11.9182
11.8043
11.5884
11.2715
10.8039
10.002
1098.51
1024.78
6.97379
7.59845
8.00671
8.29694
8.53327
8.73436
8.90369
9.04212
9.15391
9.24632
9.33177
9.4335
9.59717
9.91094
10.381
10.8731
11.2862
11.5575
11.6279
11.4767
11.1373
10.9305
10.9914
11.2633
11.5299
11.7565
11.8728
11.8731
11.7587
11.551
11.2527
10.7919
9.95852
1097.73
1024.86
6.97457
7.59855
7.99794
8.28006
8.51339
8.71417
8.88317
9.01989
9.12854
9.21609
9.29426
9.3842
9.52554
9.77155
10.1715
10.6343
11.0341
11.3362
11.4531
11.4102
11.2521
11.1519
11.14
11.2999
11.5221
11.7084
11.7889
11.7842
11.6761
11.4783
11.1798
10.683
9.71782
1096.71
1024.79
6.90726
7.54492
7.94992
8.23507
8.47062
8.67384
8.84525
8.98288
9.09217
9.18029
9.25186
9.31749
9.39953
9.55489
9.84757
10.234
10.6276
10.9705
11.1597
11.1969
11.1716
11.1486
11.2035
11.3452
11.5258
11.6688
11.7177
11.6899
11.5734
11.3722
11.0587
10.5024
9.40499
1095.92
1024.48
6.80303
7.48247
7.90061
8.19033
8.43103
8.64145
8.82237
8.97253
9.08962
9.17828
9.25068
9.31478
9.38034
9.46245
9.57433
9.77863
10.0789
10.4316
10.7182
10.8884
10.9799
11.051
11.1569
11.3189
11.4872
11.5998
11.6361
11.5976
11.4779
11.2723
10.9543
10.4018
9.30851
1095.78
1024.21
6.71888
7.42184
7.8531
8.15225
8.40253
8.62655
8.81993
8.97026
9.08394
9.18101
9.26886
9.35353
9.42727
9.48
9.52666
9.59807
9.71103
9.90026
10.154
10.4266
10.672
10.8846
11.0699
11.2426
11.3949
11.501
11.5431
11.5147
11.4036
11.211
10.9217
10.4092
9.3226
1095.92
1024.03
6.65714
7.3727
7.8149
8.12382
8.38486
8.62373
8.81599
8.97555
9.1076
9.21935
9.32416
9.4373
9.56539
9.6851
9.77565
9.83187
9.86943
9.91294
9.99823
10.1084
10.2773
10.5103
10.7887
11.0509
11.258
11.3979
11.4647
11.4573
11.374
11.2036
10.9215
10.4417
9.46882
1096.76
1023.97
6.62279
7.33731
7.78633
8.10413
8.37549
8.6233
8.84422
9.02971
9.17477
9.2882
9.38906
9.5045
9.66086
9.85049
10.0478
10.2018
10.2934
10.3103
10.2782