/*--------------------------------*- C++ -*----------------------------------*\
| =========                 |                                                 |
| \\      /  F ield         | OpenFOAM: The Open Source CFD Toolbox           |
|  \\    /   O peration     | Version:  2.0.x                                 |
|   \\  /    A nd           | Web:      www.OpenFOAM.org                      |
|    \\/     M anipulation  |                                                 |
\*---------------------------------------------------------------------------*/
FoamFile
{
    version     2.0;
    format      ascii;
    class       surfaceScalarField;
    location    "350";
    object      phi;
}
// * * * * * * * * * * * * * * * * * * * * * * * * * * * * * * * * * * * * * //

dimensions      [1 0 -1 0 0 0 0];

internalField   nonuniform List<scalar> 
228225
(
-2.64045e-06
1.42555e-06
9.66091e-07
-6.03631e-06
1.60816e-06
1.78766e-06
-8.6281e-06
5.76118e-07
2.0156e-06
-9.88225e-06
-7.79621e-07
2.03371e-06
-9.39984e-06
-2.45912e-06
1.97665e-06
-7.40454e-06
-3.91313e-06
1.91776e-06
-4.05462e-06
-5.23566e-06
1.88567e-06
2.51204e-07
-6.14065e-06
1.83477e-06
5.20905e-06
-6.75423e-06
1.79632e-06
1.04993e-05
-7.05775e-06
1.76745e-06
1.59055e-05
-7.15575e-06
1.74946e-06
2.12319e-05
-7.01817e-06
1.69168e-06
2.64258e-05
-6.81974e-06
1.62581e-06
3.15313e-05
-6.67715e-06
1.57157e-06
3.62871e-05
-6.28776e-06
1.53195e-06
4.05778e-05
-5.80142e-06
1.51067e-06
4.43162e-05
-5.22657e-06
1.48811e-06
4.74528e-05
-4.6217e-06
1.48503e-06
4.99312e-05
-3.95981e-06
1.48131e-06
5.18251e-05
-3.36944e-06
1.4755e-06
5.2907e-05
-2.5654e-06
1.48347e-06
5.34444e-05
-2.00701e-06
1.46948e-06
5.32948e-05
-1.31879e-06
1.46836e-06
5.24609e-05
-6.32202e-07
1.46603e-06
5.1003e-05
-7.71396e-09
1.46544e-06
4.86115e-05
9.29403e-07
1.46207e-06
4.55578e-05
1.5845e-06
1.469e-06
4.18519e-05
2.22843e-06
1.47739e-06
3.76046e-05
2.73988e-06
1.50732e-06
3.26883e-05
3.36539e-06
1.55067e-06
2.70983e-05
3.99426e-06
1.59555e-06
2.08502e-05
4.59078e-06
1.65703e-06
1.39484e-05
5.17082e-06
1.73058e-06
6.44669e-06
5.80454e-06
1.69664e-06
5.43314e-06
1.01352e-06
5.25684e-07
2.54551e-07
6.45111e-07
1.80398e-06
-9.31689e-07
1.26132e-06
4.10908e-06
-3.17768e-06
1.44846e-06
7.45928e-06
-5.55557e-06
1.42549e-06
1.15304e-05
-7.89929e-06
1.36875e-06
1.59434e-05
-9.62055e-06
1.2942e-06
2.03086e-05
-1.07455e-05
1.14448e-06
2.44591e-05
-1.13067e-05
1.0154e-06
2.83772e-05
-1.16066e-05
9.34053e-07
3.20164e-05
-1.15815e-05
8.84401e-07
3.53776e-05
-1.1369e-05
8.5193e-07
3.84087e-05
-1.0898e-05
8.48634e-07
4.10842e-05
-1.03813e-05
8.85996e-07
4.3212e-05
-9.71841e-06
9.13313e-07
4.48954e-05
-8.9137e-06
9.42422e-07
4.61722e-05
-8.04274e-06
9.64396e-07
4.71055e-05
-7.14008e-06
9.80066e-07
4.77168e-05
-6.21269e-06
9.7961e-07
4.80345e-05
-5.25895e-06
9.81212e-07
4.79853e-05
-4.2985e-06
9.7818e-07
4.77514e-05
-3.30934e-06
9.77687e-07
4.70743e-05
-2.30969e-06
9.79608e-07
4.6054e-05
-1.28438e-06
9.85764e-07
4.44364e-05
-8.74902e-09
9.93928e-07
4.25266e-05
8.8792e-07
1.01393e-06
4.02931e-05
2.12211e-06
1.04062e-06
3.75989e-05
3.21258e-06
1.06596e-06
3.44642e-05
4.26683e-06
1.09614e-06
3.08033e-05
5.2593e-06
1.1413e-06
2.65653e-05
6.39673e-06
1.20637e-06
2.17453e-05
7.52375e-06
1.29012e-06
1.63182e-05
8.62108e-06
1.39641e-06
1.02999e-05
9.68442e-06
1.50431e-06
4.20733e-06
1.04387e-05
1.4578e-06
8.75824e-06
8.82213e-07
7.60232e-07
-9.56852e-07
4.50931e-07
3.56275e-06
-4.52997e-06
7.95505e-07
7.84152e-06
-8.27439e-06
8.17708e-07
1.2675e-05
-1.11374e-05
7.48197e-07
1.69988e-05
-1.29105e-05
6.87235e-07
2.06185e-05
-1.38577e-05
6.17385e-07
2.33374e-05
-1.41223e-05
6.57735e-07
2.5415e-05
-1.40674e-05
6.82974e-07
2.69376e-05
-1.38463e-05
7.17169e-07
2.80623e-05
-1.34525e-05
7.46221e-07
2.88558e-05
-1.29315e-05
7.68863e-07
2.94719e-05
-1.22973e-05
7.83058e-07
2.98497e-05
-1.15461e-05
7.86995e-07
2.99747e-05
-1.06324e-05
7.88886e-07
3.00196e-05
-9.73772e-06
7.79029e-07
3.00075e-05
-8.79933e-06
7.68503e-07
2.99375e-05
-7.82707e-06
7.56922e-07
2.97864e-05
-6.80882e-06
7.4711e-07
2.95107e-05
-5.72261e-06
7.39178e-07
2.90813e-05
-4.60268e-06
7.33441e-07
2.85067e-05
-3.46412e-06
7.29233e-07
2.77823e-05
-2.31002e-06
7.24428e-07
2.68704e-05
-1.09831e-06
7.2565e-07
2.57196e-05
4.08281e-07
7.336e-07
2.4529e-05
1.33351e-06
7.44904e-07
2.34037e-05
2.48183e-06
7.65316e-07
2.19785e-05
3.83778e-06
7.99692e-07
2.01896e-05
5.20589e-06
8.49584e-07
1.79411e-05
6.60885e-06
8.98603e-07
1.53003e-05
8.07105e-06
9.66062e-07
1.22345e-05
9.53936e-06
1.04991e-06
8.72801e-06
1.09846e-05
1.14258e-06
4.95594e-06
1.22423e-05
1.21381e-06
1.52737e-06
1.27419e-05
1.1249e-06
9.71713e-06
5.68469e-07
1.21681e-06
-2.4653e-06
2.91334e-07
4.06137e-06
-7.8258e-06
4.50996e-07
7.1468e-06
-1.18191e-05
4.59126e-07
9.6129e-06
-1.40647e-05
4.61057e-07
1.12833e-05
-1.50767e-05
4.95672e-07
1.23372e-05
-1.54397e-05
5.2803e-07
1.31401e-05
-1.5479e-05
5.53764e-07
1.38451e-05
-1.53481e-05
5.75613e-07
1.44449e-05
-1.50274e-05
5.81222e-07
1.49832e-05
-1.45614e-05
5.70534e-07
1.54577e-05
-1.39657e-05
5.59558e-07
1.58607e-05
-1.32531e-05
5.52666e-07
1.6196e-05
-1.24329e-05
5.51468e-07
1.64858e-05
-1.14835e-05
5.61165e-07
1.6614e-05
-1.04412e-05
5.75156e-07
1.65544e-05
-9.32727e-06
5.87407e-07
1.62742e-05
-8.14261e-06
5.95615e-07
1.58015e-05
-6.92839e-06
5.92141e-07
1.52119e-05
-5.71771e-06
5.84573e-07
1.45559e-05
-4.52307e-06
5.76192e-07
1.38662e-05
-3.34632e-06
5.71726e-07
1.31562e-05
-2.17026e-06
5.70044e-07
1.2444e-05
-9.59596e-07
5.73377e-07
1.19485e-05
3.23573e-07
5.79987e-07
1.14773e-05
1.21109e-06
5.93502e-07
1.08919e-05
2.4491e-06
6.17897e-07
1.02029e-05
3.87639e-06
6.50119e-07
9.33616e-06
5.38657e-06
6.85834e-07
8.26905e-06
6.94101e-06
7.34703e-07
6.9907e-06
8.54796e-06
8.01201e-07
5.41281e-06
1.02272e-05
8.89871e-07
3.54281e-06
1.18785e-05
9.75919e-07
1.6207e-06
1.31366e-05
1.0276e-06
9.01547e-08
1.33413e-05
9.30828e-07
9.36217e-06
4.45104e-07
1.06285e-06
-3.73258e-06
2.04206e-07
2.88261e-06
-9.96432e-06
3.1859e-07
4.44682e-06
-1.3732e-05
3.48561e-07
5.55957e-06
-1.55496e-05
3.72069e-07
6.42e-06
-1.63316e-05
3.94402e-07
7.184e-06
-1.66163e-05
4.12551e-07
7.87228e-06
-1.65995e-05
4.32122e-07
8.43648e-06
-1.63636e-05
4.51263e-07
8.87782e-06
-1.59435e-05
4.74707e-07
9.19542e-06
-1.53796e-05
5.00499e-07
9.40214e-06
-1.46882e-05
5.15711e-07
9.50483e-06
-1.38794e-05
5.23524e-07
9.50839e-06
-1.29616e-05
5.25046e-07
9.44616e-06
-1.19457e-05
5.24314e-07
9.33231e-06
-1.08476e-05
5.2014e-07
9.17645e-06
-9.68322e-06
5.11712e-07
8.97635e-06
-8.44609e-06
5.03459e-07
8.71027e-06
-7.16234e-06
4.99907e-07
8.37318e-06
-5.87322e-06
4.92452e-07
7.9812e-06
-4.61183e-06
4.80587e-07
7.57216e-06
-3.40133e-06
4.63887e-07
7.20157e-06
-2.2514e-06
4.51557e-07
6.92435e-06
-1.12937e-06
4.46814e-07
6.75512e-06
4.12842e-08
4.51341e-07
6.54206e-06
9.56495e-07
4.67445e-07
6.32404e-06
2.16916e-06
4.9771e-07
6.064e-06
3.59453e-06
5.41643e-07
5.63942e-06
5.21056e-06
6.00375e-07
5.02195e-06
6.89704e-06
6.612e-07
4.2372e-06
8.61052e-06
7.21967e-07
3.22132e-06
1.04579e-05
7.849e-07
2.00279e-06
1.22512e-05
8.45595e-07
8.10987e-07
1.34571e-05
8.71028e-07
-5.54727e-08
1.34451e-05
7.62329e-07
8.97119e-06
3.35504e-07
6.36922e-07
-4.51798e-06
1.48384e-07
1.50225e-06
-1.1052e-05
2.22267e-07
2.20482e-06
-1.46761e-05
2.4144e-07
2.71768e-06
-1.63318e-05
2.69274e-07
3.08052e-06
-1.70021e-05
3.0759e-07
3.32758e-06
-1.72101e-05
3.46779e-07
3.50162e-06
-1.71536e-05
3.80026e-07
3.62965e-06
-1.68973e-05
4.05559e-07
3.74017e-06
-1.64794e-05
4.25272e-07
3.83692e-06
-1.59184e-05
4.42035e-07
3.91746e-06
-1.5228e-05
4.59214e-07
3.98136e-06
-1.44201e-05
4.76756e-07
4.03237e-06
-1.35054e-05
4.92687e-07
4.07673e-06
-1.24941e-05
5.04039e-07
4.11612e-06
-1.13982e-05
5.11143e-07
4.15109e-06
-1.02315e-05
5.13199e-07
4.2026e-06
-9.00678e-06
5.09109e-07
4.27356e-06
-7.73192e-06
4.98544e-07
4.34417e-06
-6.42673e-06
4.82829e-07
4.39617e-06
-5.12771e-06
4.63796e-07
4.42241e-06
-3.87181e-06
4.44156e-07
4.42443e-06
-2.67825e-06
4.24737e-07
4.4344e-06
-1.54699e-06
4.07558e-07
4.47682e-06
-3.97773e-07
3.96558e-07
4.37646e-06
6.5734e-07
3.99423e-07
4.33918e-06
1.78823e-06
4.18096e-07
4.265e-06
3.21461e-06
4.54016e-07
4.12619e-06
4.84464e-06
5.04639e-07
3.84199e-06
6.61866e-06
5.62495e-07
3.31487e-06
8.51545e-06
6.22112e-07
2.55e-06
1.05461e-05
6.76631e-07
1.59731e-06
1.24754e-05
7.28471e-07
6.63097e-07
1.36503e-05
7.4096e-07
-1.27462e-08
1.34901e-05
6.30745e-07
8.69602e-06
2.62425e-07
3.45582e-07
-4.96515e-06
1.01529e-07
7.95297e-07
-1.16606e-05
1.5887e-07
1.15656e-06
-1.52207e-05
1.83315e-07
1.42567e-06
-1.68143e-05
2.13358e-07
1.6424e-06
-1.74655e-05
2.46633e-07
1.81518e-06
-1.76773e-05
2.94337e-07
1.95627e-06
-1.76247e-05
3.29991e-07
2.07285e-06
-1.73736e-05
3.59751e-07
2.17221e-06
-1.69637e-05
3.84929e-07
2.25818e-06
-1.64141e-05
4.09688e-07
2.33489e-06
-1.57388e-05
4.34056e-07
2.40901e-06
-1.49509e-05
4.56663e-07
2.48842e-06
-1.40617e-05
4.76839e-07
2.58046e-06
-1.30805e-05
4.94321e-07
2.68886e-06
-1.20152e-05
5.08587e-07
2.81101e-06
-1.08726e-05
5.18908e-07
2.9419e-06
-9.66187e-06
5.24155e-07
3.08432e-06
-8.39732e-06
5.22936e-07
3.23944e-06
-7.09591e-06
5.14007e-07
3.39484e-06
-5.78022e-06
4.9704e-07
3.53438e-06
-4.48456e-06
4.73155e-07
3.66053e-06
-3.24911e-06
4.44634e-07
3.78736e-06
-2.08822e-06
4.1433e-07
3.93486e-06
-9.32647e-07
3.87294e-07
3.9479e-06
2.75389e-07
3.68829e-07
4.01281e-06
1.3559e-06
3.67329e-07
4.04277e-06
2.79965e-06
3.84888e-07
3.98864e-06
4.47456e-06
4.24122e-07
3.76886e-06
6.35741e-06
4.80945e-07
3.28515e-06
8.45008e-06
5.49004e-07
2.56744e-06
1.06559e-05
6.07829e-07
1.68308e-06
1.27143e-05
6.45398e-07
8.14575e-07
1.38751e-05
6.43634e-07
1.51448e-07
1.36204e-05
5.32725e-07
8.63875e-06
2.08718e-07
1.75285e-07
-5.21256e-06
7.21413e-08
3.59245e-07
-1.1952e-05
1.07425e-07
5.06177e-07
-1.54811e-05
1.135e-07
6.18343e-07
-1.70642e-05
1.3773e-07
6.96189e-07
-1.77243e-05
1.81013e-07
7.51729e-07
-1.79539e-05
2.21131e-07
7.9124e-07
-1.79267e-05
2.62556e-07
8.24198e-07
-1.77087e-05
3.02094e-07
8.52613e-07
-1.7331e-05
3.3893e-07
8.83969e-07
-1.6817e-05
3.71569e-07
9.23718e-07
-1.6182e-05
4.03475e-07
9.75641e-07
-1.54373e-05
4.34523e-07
1.04339e-06
-1.45929e-05
4.63464e-07
1.13119e-06
-1.36582e-05
4.8992e-07
1.24545e-06
-1.26426e-05
5.13157e-07
1.39396e-06
-1.15535e-05
5.32467e-07
1.58181e-06
-1.03966e-05
5.46924e-07
1.80655e-06
-9.17736e-06
5.55298e-07
2.05923e-06
-7.90475e-06
5.56152e-07
2.32538e-06
-6.5945e-06
5.48142e-07
2.58409e-06
-5.27364e-06
5.30385e-07
2.81216e-06
-3.98048e-06
5.03317e-07
2.99837e-06
-2.74279e-06
4.68388e-07
3.17777e-06
-1.53969e-06
4.27668e-07
3.32214e-06
-2.55792e-07
3.8685e-07
3.36574e-06
9.52917e-07
3.59429e-07
3.44486e-06
2.37539e-06
3.45194e-07
3.42621e-06
4.13751e-06
3.5575e-07
3.25761e-06
6.13356e-06
3.92517e-07
2.88767e-06
8.37264e-06
4.47424e-07
2.26976e-06
1.07675e-05
5.0632e-07
1.49351e-06
1.295e-05
5.40568e-07
7.28389e-07
1.41043e-05
5.35948e-07
1.39687e-07
1.37738e-05
4.35411e-07
8.60837e-06
1.70067e-07
3.22348e-08
-5.30331e-06
5.85715e-08
7.14778e-08
-1.20718e-05
8.05964e-08
1.38014e-07
-1.56183e-05
7.06503e-08
2.21026e-07
-1.72311e-05
8.39777e-08
2.98814e-07
-1.79284e-05
1.26302e-07
3.75808e-07
-1.81934e-05
1.62472e-07
4.42892e-07
-1.82012e-05
2.0743e-07
5.03227e-07
-1.80205e-05
2.51543e-07
5.60312e-07
-1.76821e-05
2.93945e-07
6.19126e-07
-1.72095e-05
3.33684e-07
6.83686e-07
-1.66184e-05
3.71888e-07
7.56694e-07
-1.59203e-05
4.09959e-07
8.4205e-07
-1.51246e-05
4.46375e-07
9.42905e-07
-1.42402e-05
4.8111e-07
1.06203e-06
-1.32756e-05
5.13874e-07
1.20308e-06
-1.22387e-05
5.44184e-07
1.37146e-06
-1.11363e-05
5.71291e-07
1.57292e-06
-9.97286e-06
5.9407e-07
1.80943e-06
-8.75225e-06
6.11014e-07
2.07426e-06
-7.47954e-06
6.20239e-07
2.34815e-06
-6.16743e-06
6.19925e-07
2.60321e-06
-4.8438e-06
6.08291e-07
2.82564e-06
-3.54868e-06
5.83484e-07
3.02967e-06
-2.29061e-06
5.46927e-07
3.2296e-06
-9.55866e-07
5.00181e-07
3.25264e-06
4.77184e-07
4.52739e-07
3.32777e-06
1.8899e-06
4.10409e-07
3.3176e-06
3.76729e-06
3.80428e-07
3.16927e-06
5.90214e-06
3.79796e-07
2.8327e-06
8.30225e-06
4.06996e-07
2.28504e-06
1.08722e-05
4.43016e-07
1.58285e-06
1.31839e-05
4.68359e-07
8.45779e-07
1.438e-05
4.61449e-07
2.34957e-07
1.4012e-05
3.72611e-07
8.69344e-06
1.49898e-07
-7.57153e-09
-5.34093e-06
4.53096e-08
-2.54985e-08
-1.20946e-05
4.08489e-08
9.28184e-09
-1.56633e-05
1.03448e-08
9.88942e-08
-1.73379e-05
1.72562e-08
1.95508e-07
-1.80837e-05
5.87494e-08
2.74989e-07
-1.83875e-05
1.14709e-07
3.40768e-07
-1.84306e-05
1.6365e-07
3.9879e-07
-1.82859e-05
2.07369e-07
4.57434e-07
-1.79868e-05
2.46111e-07
5.16648e-07
-1.75563e-05
2.87647e-07
5.80077e-07
-1.70098e-05
3.27998e-07
6.49745e-07
-1.63585e-05
3.68606e-07
7.26663e-07
-1.56118e-05
4.1029e-07
8.13709e-07
-1.47783e-05
4.51122e-07
9.14636e-07
-1.38666e-05
4.90141e-07
1.03312e-06
-1.28844e-05
5.27274e-07
1.17303e-06
-1.18385e-05
5.62359e-07
1.33893e-06
-1.07336e-05
5.94853e-07
1.53508e-06
-9.57208e-06
6.23739e-07
1.76374e-06
-8.35559e-06
6.47455e-07
2.02007e-06
-7.08794e-06
6.64265e-07
2.2874e-06
-5.7829e-06
6.71862e-07
2.54261e-06
-4.47044e-06
6.6666e-07
2.77701e-06
-3.17181e-06
6.46926e-07
3.04616e-06
-1.8361e-06
6.11221e-07
3.24371e-06
-2.78573e-07
5.58368e-07
3.31325e-06
1.31382e-06
5.06724e-07
3.4233e-06
3.20595e-06
4.51489e-07
3.33349e-06
5.57839e-06
4.13746e-07
3.02038e-06
8.21087e-06
4.04664e-07
2.47796e-06
1.09946e-05
4.2015e-07
1.75028e-06
1.34832e-05
4.28427e-07
9.61878e-07
1.47553e-05
4.13193e-07
2.85117e-07
1.4357e-05
3.32003e-07
8.84055e-06
1.38015e-07
-6.01478e-08
-5.31925e-06
3.86734e-08
-1.00222e-07
-1.20689e-05
1.45797e-08
-3.95166e-08
-1.56874e-05
-3.64755e-08
1.08637e-07
-1.74309e-05
-5.50821e-08
2.87103e-07
-1.82306e-05
-3.15432e-08
4.61661e-07
-1.85791e-05
1.70947e-08
6.21441e-07
-1.86643e-05
7.3989e-08
7.65291e-07
-1.85609e-05
1.31271e-07
8.94885e-07
-1.83025e-05
1.86206e-07
1.0187e-06
-1.79123e-05
2.32201e-07
1.1359e-06
-1.74058e-05
2.78797e-07
1.24731e-06
-1.67947e-05
3.24824e-07
1.35291e-06
-1.60886e-05
3.71326e-07
1.45504e-06
-1.52965e-05
4.16139e-07
1.55543e-06
-1.44272e-05
4.6031e-07
1.65655e-06
-1.34894e-05
5.03916e-07
1.76207e-06
-1.24907e-05
5.46739e-07
1.87688e-06
-1.14367e-05
5.88456e-07
2.00655e-06
-1.03301e-05
6.28461e-07
2.15633e-06
-9.17086e-06
6.65579e-07
2.32859e-06
-7.95867e-06
6.98568e-07
2.51703e-06
-6.69643e-06
7.25201e-07
2.70439e-06
-5.39987e-06
7.42183e-07
2.8863e-06
-4.09806e-06
7.44465e-07
3.10159e-06
-2.78061e-06
7.29374e-07
3.39394e-06
-1.26401e-06
6.93262e-07
3.47523e-06
5.96699e-07
6.36011e-07
3.57981e-06
2.54016e-06
5.61402e-07
3.46798e-06
5.21503e-06
4.75377e-07
3.12052e-06
8.14046e-06
4.18035e-07
2.50628e-06
1.12126e-05
3.96389e-07
1.71786e-06
1.38799e-05
3.91907e-07
9.17072e-07
1.51814e-05
3.7488e-07
2.60602e-07
1.47113e-05
3.02379e-07
8.96723e-06
1.33935e-07
-5.73777e-08
-5.28521e-06
2.36303e-08
-6.00878e-08
-1.20364e-05
-2.96705e-08
7.33131e-08
-1.57329e-05
-8.77915e-08
2.99457e-07
-1.75464e-05
-1.10559e-07
5.55641e-07
-1.83945e-05
-9.21891e-08
8.05783e-07
-1.87777e-05
-5.14315e-08
1.03667e-06
-1.88936e-05
-1.56876e-09
1.24467e-06
-1.88212e-05
5.23201e-08
1.42834e-06
-1.85938e-05
1.07725e-07
1.58674e-06
-1.8234e-05
1.6338e-07
1.72543e-06
-1.77576e-05
2.13178e-07
1.84851e-06
-1.71767e-05
2.59011e-07
1.95985e-06
-1.65011e-05
3.01258e-07
2.05647e-06
-1.57402e-05
3.47119e-07
2.13746e-06
-1.49029e-05
3.94782e-07
2.20363e-06
-1.39984e-05
4.42889e-07
2.25684e-06
-1.30348e-05
4.91003e-07
2.30006e-06
-1.20189e-05
5.39074e-07
2.33764e-06
-1.09546e-05
5.87017e-07
2.37516e-06
-9.84253e-06
6.34278e-07
2.41783e-06
-8.68137e-06
6.80175e-07
2.46812e-06
-7.47012e-06
7.23556e-07
2.52197e-06
-6.21512e-06
7.61572e-07
2.56754e-06
-4.9335e-06
7.90071e-07
2.60851e-06
-3.62468e-06
8.03352e-07
2.74894e-06
-2.1993e-06
7.95175e-07
2.88989e-06
-2.96469e-07
7.52572e-07
2.99345e-06
1.75091e-06
6.86091e-07
2.96953e-06
4.65043e-06
5.88948e-07
2.62397e-06
7.97788e-06
5.08541e-07
2.06683e-06
1.13272e-05
4.42876e-07
1.3803e-06
1.41762e-05
3.90413e-07
7.07161e-07
1.55099e-05
3.44937e-07
1.72553e-07
1.49778e-05
2.68543e-07
9.01451e-06
1.25277e-07
-8.7153e-08
-5.2072e-06
9.48678e-09
-4.54962e-08
-1.20045e-05
-7.32882e-08
1.86852e-07
-1.5812e-05
-1.53052e-07
5.59933e-07
-1.77325e-05
-1.86745e-07
9.82734e-07
-1.86417e-05
-1.75451e-07
1.40089e-06
-1.90571e-05
-1.38688e-07
1.79198e-06
-1.91931e-05
-9.14562e-08
2.15085e-06
-1.914e-05
-3.98967e-08
2.47592e-06
-1.89324e-05
1.36246e-08
2.76695e-06
-1.85926e-05
6.77114e-08
3.02277e-06
-1.8135e-05
1.21733e-07
3.24183e-06
-1.75712e-05
1.75553e-07
3.42374e-06
-1.69115e-05
2.28613e-07
3.56795e-06
-1.61656e-05
2.81371e-07
3.67415e-06
-1.53431e-05
3.34072e-07
3.74527e-06
-1.44532e-05
3.8385e-07
3.78329e-06
-1.35047e-05
4.31962e-07
3.78933e-06
-1.25044e-05
4.79553e-07
3.76446e-06
-1.14579e-05
5.28337e-07
3.7157e-06
-1.03727e-05
5.79105e-07
3.64762e-06
-9.24433e-06
6.312e-07
3.55823e-06
-8.06487e-06
6.84316e-07
3.4413e-06
-6.8352e-06
7.37194e-07
3.28685e-06
-5.56679e-06
7.87957e-07
3.11431e-06
-4.2835e-06
8.31593e-07
3.01296e-06
-2.96101e-06
8.63338e-07
3.05193e-06
-1.20837e-06
8.73264e-07
2.94216e-06
1.01731e-06
8.43741e-07
3.0537e-06
3.78092e-06
7.58332e-07
2.90558e-06
7.49573e-06
6.30646e-07
2.43827e-06
1.12511e-05
5.43711e-07
1.78552e-06
1.43719e-05
4.57273e-07
1.04815e-06
1.58591e-05
3.88407e-07
3.81285e-07
1.53479e-05
2.97126e-07
9.24495e-06
1.50874e-07
-1.65213e-09
-5.18849e-06
-1.66485e-08
2.01444e-07
-1.20887e-05
-1.18511e-07
6.5647e-07
-1.60589e-05
-2.07867e-07
1.26134e-06
-1.80898e-05
-2.47425e-07
1.91436e-06
-1.90483e-05
-2.46175e-07
2.55749e-06
-1.94797e-05
-2.20404e-07
3.16095e-06
-1.96148e-05
-1.81659e-07
3.71435e-06
-1.95573e-05
-1.35997e-07
4.21126e-06
-1.93426e-05
-8.65835e-08
4.6492e-06
-1.89952e-05
-3.51944e-08
5.02782e-06
-1.85312e-05
1.77065e-08
5.34719e-06
-1.79626e-05
7.21937e-08
5.60688e-06
-1.7299e-05
1.27887e-07
5.81134e-06
-1.65492e-05
1.79226e-07
5.96669e-06
-1.5724e-05
2.25763e-07
6.07409e-06
-1.48339e-05
2.73415e-07
6.13539e-06
-1.38863e-05
3.20491e-07
6.1501e-06
-1.28865e-05
3.67594e-07
6.11477e-06
-1.18365e-05
4.14103e-07
6.02483e-06
-1.07415e-05
4.58893e-07
5.87413e-06
-9.59917e-06
5.0575e-07
5.65701e-06
-8.40628e-06
5.58777e-07
5.37332e-06
-7.16838e-06
6.17117e-07
5.02808e-06
-5.9014e-06
6.80117e-07
4.6446e-06
-4.64265e-06
7.4294e-07
4.27152e-06
-3.3895e-06
8.01958e-07
3.98334e-06
-1.77684e-06
8.57157e-07
3.60602e-06
5.05994e-07
8.89228e-07
3.59975e-06
2.92229e-06
8.65536e-07
3.51701e-06
6.81228e-06
7.66727e-07
3.0684e-06
1.10659e-05
6.3429e-07
2.28971e-06
1.46115e-05
5.39444e-07
1.36523e-06
1.63285e-05
4.55488e-07
5.11813e-07
1.58509e-05
3.5111e-07
9.57301e-06
1.8377e-07
6.83036e-08
-5.21477e-06
-4.15373e-08
4.7088e-07
-1.23237e-05
-1.67179e-07
1.15342e-06
-1.64923e-05
-2.489e-07
1.98813e-06
-1.86346e-05
-2.89678e-07
2.87302e-06
-1.9635e-05
-2.98053e-07
3.7523e-06
-2.00722e-05
-2.86572e-07
4.5929e-06
-2.01934e-05
-2.61774e-07
5.38217e-06
-2.01184e-05
-2.28055e-07
6.10456e-06
-1.98763e-05
-1.88584e-07
6.74846e-06
-1.94943e-05
-1.44612e-07
7.30729e-06
-1.8993e-05
-9.68683e-08
7.77948e-06
-1.83879e-05
-4.67726e-08
8.16788e-06
-1.7691e-05
3.76233e-09
8.47766e-06
-1.69119e-05
5.30927e-08
8.71309e-06
-1.60597e-05
1.00375e-07
8.87786e-06
-1.5144e-05
1.45599e-07
8.96091e-06
-1.41616e-05
1.92441e-07
8.95881e-06
-1.31209e-05
2.36678e-07
8.87655e-06
-1.20301e-05
2.76019e-07
8.69345e-06
-1.08833e-05
3.25154e-07
8.40206e-06
-9.6933e-06
3.85764e-07
8.01663e-06
-8.46912e-06
4.48532e-07
7.54418e-06
-7.21014e-06
5.14481e-07
6.98934e-06
-5.93089e-06
5.84615e-07
6.35941e-06
-4.66805e-06
6.55648e-07
5.67002e-06
-3.42387e-06
7.24132e-07
4.9934e-06
-1.89339e-06
7.93624e-07
4.43197e-06
2.06611e-07
8.61331e-07
4.08993e-06
2.37979e-06
8.85116e-07
3.82198e-06
6.24173e-06
8.39041e-07
3.30162e-06
1.08731e-05
7.13604e-07
2.43634e-06
1.48895e-05
5.8765e-07
1.43763e-06
1.68405e-05
4.87056e-07
5.33156e-07
1.63813e-05
3.74637e-07
9.91195e-06
1.94233e-07
2.57871e-07
-5.39461e-06
-7.74944e-08
9.63971e-07
-1.28243e-05
-2.05176e-07
1.92624e-06
-1.71792e-05
-2.75086e-07
2.99337e-06
-1.93864e-05
-3.15156e-07
4.08401e-06
-2.0392e-05
-3.33437e-07
5.15919e-06
-2.08096e-05
-3.37678e-07
6.19055e-06
-2.08949e-05
-3.2979e-07
7.16894e-06
-2.07845e-05
-3.12093e-07
8.07497e-06
-2.04943e-05
-2.8787e-07
8.89231e-06
-2.00544e-05
-2.5707e-07
9.60686e-06
-1.94875e-05
-2.19887e-07
1.02087e-05
-1.8812e-05
-1.77528e-07
1.06945e-05
-1.80449e-05
-1.31756e-07
1.10658e-05
-1.71984e-05
-8.45452e-08
1.13217e-05
-1.62768e-05
-3.84749e-08
1.14609e-05
-1.52828e-05
-2.0037e-10
1.14909e-05
-1.42259e-05
3.44885e-08
1.14077e-05
-1.3113e-05
7.55779e-08
1.11974e-05
-1.19527e-05
1.3322e-07
1.08792e-05
-1.07517e-05
1.86912e-07
1.04608e-05
-9.51217e-06
2.37542e-07
9.94747e-06
-8.2467e-06
2.91194e-07
9.35497e-06
-6.96472e-06
3.47405e-07
8.69211e-06
-5.67718e-06
4.09494e-07
7.95062e-06
-4.40318e-06
4.7699e-07
7.10628e-06
-3.12787e-06
5.48797e-07
6.19372e-06
-1.61317e-06
6.32877e-07
5.30741e-06
3.59219e-07
7.34318e-07
4.57596e-06
2.30271e-06
8.09237e-07
4.03055e-06
5.93083e-06
8.57037e-07
3.40159e-06
1.07139e-05
7.88739e-07
2.49224e-06
1.5151e-05
6.48227e-07
1.45313e-06
1.73621e-05
5.17989e-07
5.24192e-07
1.69282e-05
3.82799e-07
1.02532e-05
1.83004e-07
4.05314e-07
-5.69883e-06
-1.0061e-07
1.33651e-06
-1.3543e-05
-2.12204e-07
2.47106e-06
-1.80545e-05
-2.58953e-07
3.65354e-06
-2.02737e-05
-2.94978e-07
4.8349e-06
-2.12492e-05
-3.24041e-07
5.99678e-06
-2.16249e-05
-3.46372e-07
7.11888e-06
-2.16581e-05
-3.58687e-07
8.19046e-06
-2.14951e-05
-3.60899e-07
9.18868e-06
-2.11359e-05
-3.56383e-07
1.00983e-05
-2.06195e-05
-3.44389e-07
1.09064e-05
-1.99705e-05
-3.24973e-07
1.16012e-05
-1.92079e-05
-2.98669e-07
1.21769e-05
-1.83537e-05
-2.66724e-07
1.26249e-05
-1.74152e-05
-2.31068e-07
1.29356e-05
-1.63935e-05
-1.93722e-07
1.31042e-05
-1.53002e-05
-1.5108e-07
1.3136e-05
-1.41499e-05
-1.07581e-07
1.30345e-05
-1.29409e-05
-7.03765e-08
1.2793e-05
-1.16688e-05
-4.20749e-08
1.24001e-05
-1.03495e-05
-9.02325e-09
1.18722e-05
-9.01412e-06
3.00516e-08
1.12384e-05
-7.68777e-06
7.52184e-08
1.05289e-05
-6.37918e-06
1.24244e-07
9.75739e-06
-5.08674e-06
1.81359e-07
8.90599e-06
-3.79817e-06
2.46725e-07
7.92838e-06
-2.46899e-06
3.19126e-07
6.87979e-06
-9.68846e-07
4.04721e-07
5.84878e-06
8.74629e-07
5.16096e-07
4.92322e-06
2.63034e-06
5.98566e-07
4.19852e-06
5.96759e-06
6.88694e-07
3.48818e-06
1.07119e-05
7.1296e-07
2.55165e-06
1.54486e-05
6.39397e-07
1.4785e-06
1.79145e-05
5.21219e-07
5.09843e-07
1.75185e-05
3.78929e-07
1.05982e-05
1.64847e-07
6.04003e-07
-6.18485e-06
-1.17619e-07
1.70361e-06
-1.4444e-05
-1.9835e-07
2.88463e-06
-1.90153e-05
-2.20055e-07
4.02752e-06
-2.1167e-05
-2.49472e-07
5.13803e-06
-2.20736e-05
-2.85995e-07
6.22639e-06
-2.23899e-05
-3.23269e-07
7.29179e-06
-2.23693e-05
-3.54124e-07
8.30941e-06
-2.21361e-05
-3.76489e-07
9.26591e-06
-2.1699e-05
-3.9334e-07
1.01496e-05
-2.10998e-05
-4.03245e-07
1.09531e-05
-2.03684e-05
-4.05488e-07
1.16637e-05
-1.95181e-05
-4.00234e-07
1.22643e-05
-1.85667e-05
-3.8743e-07
1.27501e-05
-1.75296e-05
-3.71326e-07
1.3126e-05
-1.64165e-05
-3.52717e-07
1.33716e-05
-1.5214e-05
-3.31605e-07
1.34496e-05
-1.39133e-05
-3.14468e-07
1.33371e-05
-1.25296e-05
-2.98507e-07
1.30312e-05
-1.10823e-05
-2.80455e-07
1.25369e-05
-9.5949e-06
-2.6007e-07
1.18879e-05
-8.13169e-06
-2.33177e-07
1.11339e-05
-6.73646e-06
-1.97042e-07
1.03177e-05
-5.40925e-06
-1.53434e-07
9.4641e-06
-4.13126e-06
-1.0159e-07
8.57794e-06
-2.87274e-06
-3.89095e-08
7.65958e-06
-1.58569e-06
3.55156e-08
6.7387e-06
-1.83243e-07
1.35805e-07
6.01337e-06
1.3364e-06
2.64164e-07
5.09007e-06
3.17425e-06
3.80106e-07
4.16064e-06
6.35036e-06
5.47367e-07
3.21055e-06
1.10195e-05
6.43116e-07
2.14001e-06
1.59152e-05
6.04432e-07
1.07456e-06
1.8481e-05
4.9954e-07
2.52983e-07
1.7996e-05
3.45024e-07
1.07557e-05
9.5479e-08
6.0444e-07
-6.6851e-06
-1.03917e-07
1.58474e-06
-1.52859e-05
-1.38307e-07
2.53038e-06
-1.98233e-05
-1.37507e-07
3.38769e-06
-2.18655e-05
-1.58654e-07
4.20888e-06
-2.26969e-05
-1.97795e-07
5.02435e-06
-2.29612e-05
-2.44153e-07
5.84212e-06
-2.28992e-05
-2.87796e-07
6.6311e-06
-2.25973e-05
-3.27713e-07
7.38991e-06
-2.20936e-05
-3.64066e-07
8.1095e-06
-2.14237e-05
-3.95579e-07
8.78081e-06
-2.06194e-05
-4.20287e-07
9.41626e-06
-1.97113e-05
-4.42098e-07
1.00055e-05
-1.86949e-05
-4.6099e-07
1.05234e-05
-1.75685e-05
-4.78852e-07
1.09072e-05
-1.63141e-05
-4.86079e-07
1.11026e-05
-1.4916e-05
-4.93202e-07
1.10649e-05
-1.33731e-05
-5.02331e-07
1.07878e-05
-1.17395e-05
-5.12768e-07
1.03184e-05
-1.00937e-05
-5.19106e-07
9.71774e-06
-8.48056e-06
-5.13469e-07
9.02626e-06
-6.94844e-06
-4.91573e-07
8.29777e-06
-5.55291e-06
-4.54849e-07
7.56691e-06
-4.27197e-06
-4.06202e-07
6.86438e-06
-3.07852e-06
-3.49976e-07
6.21899e-06
-1.94608e-06
-2.80992e-07
5.66124e-06
-8.30106e-07
-1.9753e-07
5.17997e-06
4.00573e-07
-1.02197e-07
4.80774e-06
1.71437e-06
-5.26939e-09
4.05969e-06
3.7975e-06
1.25397e-07
3.02036e-06
7.08496e-06
3.05315e-07
1.83677e-06
1.17344e-05
4.69113e-07
7.7651e-07
1.6483e-05
4.9291e-07
1.1004e-07
1.87561e-05
3.9207e-07
-2.07678e-07
1.80774e-05
2.37041e-07
1.05143e-05
3.37384e-08
4.88571e-07
-7.10123e-06
-7.24108e-08
1.09703e-06
-1.58279e-05
-6.64437e-08
1.59388e-06
-2.02649e-05
-5.52863e-08
1.99772e-06
-2.22046e-05
-6.47686e-08
2.38337e-06
-2.29861e-05
-9.64339e-08
2.78753e-06
-2.32256e-05
-1.39702e-07
3.21567e-06
-2.31412e-05
-1.86182e-07
3.65918e-06
-2.28079e-05
-2.32918e-07
4.11986e-06
-2.22751e-05
-2.7925e-07
4.59326e-06
-2.15701e-05
-3.27002e-07
5.06328e-06
-2.07067e-05
-3.82686e-07
5.48626e-06
-1.97055e-05
-4.28787e-07
5.83969e-06
-1.85812e-05
-4.67072e-07
6.08828e-06
-1.73201e-05
-4.9694e-07
6.19517e-06
-1.58879e-05
-5.33069e-07
6.10783e-06
-1.42502e-05
-5.78477e-07
5.7962e-06
-1.24262e-05
-6.35252e-07
5.28904e-06
-1.05353e-05
-6.97068e-07
4.6909e-06
-8.7471e-06
-7.48376e-07
4.1146e-06
-7.12999e-06
-7.74226e-07
3.59222e-06
-5.65796e-06
-7.68038e-07
3.13742e-06
-4.36394e-06
-7.34096e-07
2.75338e-06
-3.20958e-06
-6.78263e-07
2.43771e-06
-2.15224e-06
-6.1049e-07
2.18259e-06
-1.16402e-06
-5.26776e-07
1.99109e-06
-2.09194e-07
-4.29225e-07
1.87538e-06
8.3728e-07
-3.2073e-07
1.65187e-06
2.14154e-06
-2.03267e-07
1.24238e-06
4.24332e-06
-3.58612e-08
5.38459e-07
7.63679e-06
1.52578e-07
-2.39888e-07
1.22138e-05
2.9954e-07
-7.42207e-07
1.66348e-05
3.5102e-07
-8.58299e-07
1.8563e-05
3.09487e-07
-6.4081e-07
1.76861e-05
1.74282e-07
9.90387e-06
-3.03516e-08
2.09304e-07
-7.27486e-06
-3.56084e-08
4.20848e-07
-1.6021e-05
-1.83537e-08
5.44198e-07
-2.03981e-05
9.94454e-09
6.18311e-07
-2.229e-05
1.12889e-08
6.73108e-07
-2.30354e-05
-5.51974e-09
7.32556e-07
-2.3251e-05
-3.40793e-08
7.9897e-07
-2.31384e-05
-6.91426e-08
8.67101e-07
-2.27693e-05
-1.06748e-07
9.24186e-07
-2.21872e-05
-1.44964e-07
9.59519e-07
-2.14231e-05
-1.82421e-07
9.73404e-07
-2.05055e-05
-2.15138e-07
9.64977e-07
-1.94464e-05
-2.50657e-07
9.25038e-07
-1.82499e-05
-2.91432e-07
8.54873e-07
-1.6909e-05
-3.40922e-07
7.69447e-07
-1.53975e-05
-4.05015e-07
6.78594e-07
-1.3668e-05
-4.91337e-07
5.73592e-07
-1.17197e-05
-6.01577e-07
4.1961e-07
-9.65552e-06
-7.25761e-07
1.84545e-07
-7.67161e-06
-8.40429e-07
-8.21972e-08
-5.94315e-06
-9.20081e-07
-2.69708e-07
-4.52062e-06
-9.49797e-07
-3.79035e-07
-3.31579e-06
-9.38778e-07
-4.24176e-07
-2.26701e-06
-8.97356e-07
-4.31451e-07
-1.30862e-06
-8.36253e-07
-4.31142e-07
-4.08233e-07
-7.55986e-07
-4.35233e-07
4.54138e-07
-6.59084e-07
-4.55736e-07
1.39425e-06
-5.36237e-07
-5.40488e-07
2.603e-06
-3.7637e-07
-6.14308e-07
4.50089e-06
-1.83241e-07
-6.8028e-07
7.66506e-06
3.83571e-08
-7.36968e-07
1.20134e-05
2.575e-07
-7.61641e-07
1.62959e-05
3.63781e-07
-6.76846e-07
1.81708e-05
3.07784e-07
-3.73379e-07
1.72322e-05
1.51103e-07
9.55504e-06
-2.45668e-08
-1.70821e-07
-7.1194e-06
1.5209e-08
-3.97696e-07
-1.58341e-05
3.98108e-08
-5.95704e-07
-2.02564e-05
5.61125e-08
-7.68031e-07
-2.21909e-05
7.31204e-08
-9.21869e-07
-2.29661e-05
8.44879e-08
-1.06712e-06
-2.3189e-05
8.32298e-08
-1.20383e-06
-2.30763e-05
7.45323e-08
-1.33373e-06
-2.27002e-05
6.07332e-08
-1.46098e-06
-2.21038e-05
4.38019e-08
-1.58536e-06
-2.13206e-05
2.17979e-08
-1.70161e-06
-2.03797e-05
-9.6416e-09
-1.80465e-06
-1.92959e-05
-4.76804e-08
-1.88032e-06
-1.80808e-05
-9.35518e-08
-1.90319e-06
-1.67348e-05
-1.51628e-07
-1.83216e-06
-1.52363e-05
-2.32528e-07
-1.61443e-06
-1.3554e-05
-3.32018e-07
-1.2264e-06
-1.1655e-05
-4.53017e-07
-7.38213e-07
-9.5521e-06
-5.91963e-07
-3.13149e-07
-7.37069e-06
-7.26296e-07
-4.29601e-08
-5.35189e-06
-8.61744e-07
9.78165e-08
-3.69903e-06
-9.62635e-07
1.87058e-07
-2.39699e-06
-1.00827e-06
2.74533e-07
-1.34571e-06
-1.00899e-06
3.89067e-07
-4.49746e-07
-9.736e-07
4.85437e-07
4.06164e-07
-9.10946e-07
5.10643e-07
1.24446e-06
-8.15712e-07
4.31576e-07
2.16363e-06
-6.90546e-07
2.78142e-07
3.29089e-06
-5.34798e-07
1.95081e-07
4.91844e-06
-3.34966e-07
3.37783e-07
7.60566e-06
-8.38278e-08
5.05236e-07
1.16643e-05
1.81173e-07
5.3804e-07
1.59305e-05
3.32164e-07
3.98583e-07
1.79845e-05
3.24999e-07
1.94824e-07
1.72305e-05
2.04537e-07
9.70711e-06
4.27387e-08
-2.88372e-07
-6.86982e-06
3.8731e-08
-6.60374e-07
-1.55217e-05
5.96148e-08
-9.02095e-07
-2.0076e-05
6.13619e-08
-1.06321e-06
-2.21076e-05
7.78198e-08
-1.18614e-06
-2.29389e-05
9.5639e-08
-1.29113e-06
-2.31947e-05
1.10593e-07
-1.38147e-06
-2.3106e-05
1.1996e-07
-1.45541e-06
-2.27504e-05
1.24095e-07
-1.51083e-06
-2.21725e-05
1.23971e-07
-1.54744e-06
-2.14045e-05
1.20411e-07
-1.56718e-06
-2.0473e-05
1.12955e-07
-1.56443e-06
-1.93994e-05
1.00593e-07
-1.52745e-06
-1.82002e-05
8.2288e-08
-1.43515e-06
-1.6885e-05
5.77312e-08
-1.25052e-06
-1.54514e-05
3.03418e-08
-9.13702e-07
-1.38797e-05
-1.12936e-08
-3.53619e-07
-1.21293e-05
-8.60062e-08
4.51526e-07
-1.01459e-05
-2.11597e-07
1.40319e-06
-7.9255e-06
-3.97133e-07
2.23151e-06
-5.59538e-06
-5.85074e-07
2.69028e-06
-3.40907e-06
-7.4893e-07
2.8347e-06
-1.65558e-06
-8.8599e-07
2.93045e-06
-4.73757e-07
-9.67827e-07
2.99361e-06
4.87181e-07
-1.00017e-06
3.03071e-06
1.36161e-06
-9.92618e-07
2.99975e-06
2.22192e-06
-9.46559e-07
2.86962e-06
3.15498e-06
-8.6125e-07
2.61982e-06
4.27501e-06
-7.34363e-07
2.31489e-06
5.77942e-06
-5.56111e-07
2.15369e-06
8.07272e-06
-3.05964e-07