/*--------------------------------*- C++ -*----------------------------------*\
| =========                 |                                                 |
| \\      /  F ield         | OpenFOAM: The Open Source CFD Toolbox           |
|  \\    /   O peration     | Version:  2.0.x                                 |
|   \\  /    A nd           | Web:      www.OpenFOAM.org                      |
|    \\/     M anipulation  |                                                 |
\*---------------------------------------------------------------------------*/
FoamFile
{
    version     2.0;
    format      ascii;
    class       volScalarField;
    location    "350";
    object      T;
}
// * * * * * * * * * * * * * * * * * * * * * * * * * * * * * * * * * * * * * //

dimensions      [0 0 0 1 0 0 0];

internalField   nonuniform List<scalar> 
78750
(
288.558
289.133
289.443
289.602
289.702
289.804
289.913
290.018
290.112
290.198
290.279
290.354
290.424
290.49
290.549
290.603
290.65
290.692
290.726
290.756
290.778
290.796
290.807
290.814
290.811
290.809
290.807
290.805
290.802
290.799
290.799
290.812
291.019
293.078
300.839
288.354
288.682
288.913
289.138
289.377
289.613
289.833
290.035
290.229
290.411
290.582
290.748
290.901
291.041
291.169
291.283
291.384
291.471
291.546
291.608
291.656
291.69
291.712
291.715
291.712
291.68
291.623
291.546
291.453
291.338
291.201
291.126
291.334
293.569
301.104
288.349
288.741
289.131
289.521
289.889
290.218
290.5
290.744
290.959
291.152
291.324
291.47
291.604
291.726
291.835
291.931
292.011
292.076
292.125
292.16
292.181
292.19
292.19
292.182
292.161
292.129
292.079
292.007
291.908
291.769
291.606
291.623
292.239
294.97
301.844
288.425
288.974
289.499
289.955
290.3
290.555
290.76
290.939
291.102
291.253
291.397
291.536
291.667
291.788
291.896
291.991
292.07
292.132
292.178
292.207
292.223
292.228
292.225
292.214
292.197
292.171
292.129
292.069
291.985
291.893
291.893
292.189
293.422
296.39
302.815
288.473
289.098
289.635
290.044
290.347
290.593
290.81
291.012
291.203
291.382
291.548
291.698
291.834
291.96
292.072
292.167
292.243
292.296
292.326
292.334
292.327
292.305
292.277
292.246
292.215
292.18
292.137
292.084
292.031
292.03
292.186
292.868
294.421
297.447
303.489
288.509
289.183
289.734
290.136
290.427
290.662
290.87
291.061
291.239
291.407
291.565
291.712
291.848
291.974
292.086
292.181
292.258
292.31
292.339
292.346
292.336
292.31
292.275
292.237
292.201
292.165
292.13
292.099
292.102
292.196
292.573
293.539
295.263
298.26
303.961
288.518
289.196
289.744
290.143
290.433
290.666
290.874
291.065
291.243
291.409
291.566
291.713
291.85
291.976
292.091
292.193
292.284
292.359
292.407
292.428
292.422
292.393
292.347
292.292
292.235
292.183
292.144
292.133
292.173
292.367
292.901
294.055
295.872
298.813
304.241
288.526
289.209
289.753
290.146
290.433
290.667
290.874
291.064
291.242
291.409
291.566
291.712
291.849
291.975
292.09
292.194
292.284
292.363
292.428
292.468
292.481
292.468
292.432
292.378
292.315
292.256
292.217
292.228
292.346
292.664
293.37
294.69
296.551
299.4
304.516
288.527
289.209
289.753
290.145
290.429
290.658
290.86
291.044
291.215
291.376
291.528
291.672
291.808
291.938
292.059
292.171
292.272
292.361
292.435
292.497
292.54
292.555
292.545
292.509
292.454
292.391
292.342
292.351
292.486
292.877
293.694
295.116
297.005
299.795
304.692
288.525
289.201
289.738
290.126
290.41
290.64
290.843
291.028
291.2
291.362
291.513
291.656
291.79
291.916
292.035
292.145
292.248
292.343
292.427
292.498
292.557
292.603
292.623
292.62
292.595
292.553
292.513
292.518
292.638
293.031
293.877
295.346
297.267
300.043
304.803
288.522
289.193
289.725
290.114
290.397
290.625
290.823
291.003
291.17
291.327
291.475
291.616
291.75
291.877
291.997
292.109
292.215
292.313
292.403
292.485
292.557
292.618
292.669
292.7
292.712
292.71
292.705
292.728
292.869
293.278
294.157
295.675
297.614
300.346
304.933
288.518
289.18
289.709
290.099
290.384
290.613
290.813
290.994
291.161
291.318
291.466
291.606
291.738
291.863
291.981
292.092
292.196
292.293
292.384
292.469
292.547
292.618
292.681
292.738
292.784
292.821
292.864
292.946
293.15
293.632
294.594
296.168
298.096
300.745
305.109
288.515
289.171
289.698
290.091
290.379
290.608
290.805
290.984
291.148
291.302
291.447
291.585
291.715
291.839
291.955
292.066
292.169
292.266
292.357
292.443
292.524
292.601
292.674
292.741
292.806
292.872
292.947
293.062
293.292
293.795
294.779
296.373
298.312
300.939
305.184
288.509
289.161
289.69
290.086
290.376
290.606
290.804
290.983
291.147
291.301
291.446
291.582
291.712
291.834
291.95
292.058
292.16
292.256
292.345
292.429
292.508
292.584
292.658
292.731
292.804
292.882
292.98
293.12
293.356
293.829
294.786
296.378
298.326
300.961
305.188
288.509
289.161
289.695
290.102
290.401
290.636
290.839
291.021
291.189
291.345
291.491
291.627
291.756
291.876
291.989
292.094
292.191
292.281
292.364
292.441
292.513
292.582
292.651
292.721
292.795
292.877
292.985
293.148
293.418
293.912
294.844
296.422
298.41
301.068
305.223
288.509
289.17
289.718
290.135
290.442
290.683
290.891
291.079
291.252
291.413
291.564
291.706
291.838
291.961
292.075
292.18
292.278
292.366
292.447
292.519
292.584
292.644
292.7
292.755
292.814
292.884
292.983
293.142
293.42
293.944
294.916
296.521
298.533
301.188
305.27
288.521
289.206
289.776
290.207
290.521
290.768
290.982
291.175
291.354
291.521
291.677
291.823
291.959
292.085
292.202
292.309
292.407
292.495
292.573
292.642
292.702
292.753
292.799
292.842
292.886
292.941
293.023
293.163
293.424
293.944
294.934
296.568
298.611
301.273
305.3
288.536
289.255
289.851
290.295
290.617
290.873
291.096
291.299
291.488
291.665
291.831
291.985
292.129
292.262
292.384
292.496
292.596
292.684
292.76
292.822
292.872
292.912
292.943
292.971
293.001
293.043
293.111
293.234
293.471
293.97
294.961
296.622
298.705
301.381
305.348
288.563
289.325
289.944
290.395
290.72
290.98
291.211
291.422
291.621
291.807
291.982
292.147
292.3
292.442
292.574
292.695
292.804
292.898
292.975
293.034
293.077
293.106
293.126
293.142
293.162
293.195
293.256
293.372
293.616
294.142
295.172
296.889
298.978
301.602
305.46
288.587
289.384
290.017
290.468
290.793
291.058
291.293
291.512
291.719
291.915
292.1
292.274
292.437
292.591
292.739
292.878
293.002
293.1
293.174
293.226
293.26
293.282
293.297
293.31
293.328
293.363
293.433
293.579
293.896
294.548
295.719
297.49
299.49
301.971
305.634
288.607
289.424
290.054
290.495
290.814
291.076
291.311
291.532
291.741
291.94
292.129
292.31
292.483
292.647
292.806
292.959
293.106
293.235
293.326
293.378
293.41
293.431
293.446
293.462
293.484
293.522
293.597
293.755
294.104
294.819
296.016
297.755
299.664
302.045
305.655
288.612
289.43
290.057
290.497
290.815
291.076
291.312
291.532
291.741
291.94
292.13
292.311
292.484
292.648
292.807
292.96
293.107
293.242
293.358
293.45
293.507
293.543
293.57
293.596
293.625
293.663
293.728
293.855
294.135
294.744
295.87
297.585
299.513
301.929
305.6
288.608
289.415
290.035
290.473
290.791
291.051
291.285
291.504
291.711
291.907
292.094
292.271
292.44
292.602
292.759
292.911
293.06
293.206
293.342
293.459
293.555
293.626
293.678
293.722
293.769
293.824
293.895
294.005
294.213
294.703
295.715
297.386
299.357
301.818
305.53
288.59
289.367
289.974
290.411
290.73
290.989
291.221
291.436
291.639
291.831
292.013
292.186
292.35
292.506
292.655
292.8
292.945
293.095
293.251
293.405
293.548
293.667
293.756
293.828
293.9
293.982
294.084
294.225
294.441
294.829
295.701
297.348
299.329
301.8
305.519
288.573
289.328
289.928
290.368
290.689
290.95
291.183
291.4
291.605
291.8
291.985
292.161
292.327
292.483
292.631
292.772
292.908
293.042
293.18
293.331
293.496
293.658
293.795
293.906
294.006
294.112
294.248
294.445
294.749
295.259
296.169
297.727
299.595
301.938
305.575
288.565
289.312
289.916
290.36
290.683
290.945
291.179
291.396
291.602
291.798
291.984
292.16
292.327
292.484
292.632
292.773
292.908
293.041
293.175
293.319
293.478
293.653
293.823
293.97
294.101
294.236
294.402
294.648
295.052
295.732
296.842
298.453
300.164
302.29
305.718
288.561
289.307
289.914
290.364
290.693
290.96
291.199
291.423
291.634
291.836
292.028
292.21
292.382
292.544
292.696
292.837
292.968
293.088
293.202
293.322
293.464
293.637
293.829
294.015
294.184
294.342
294.525
294.793
295.242
296.011
297.215
298.81
300.42
302.436
305.778
288.563
289.321
289.945
290.407
290.744
291.02
291.267
291.499
291.719
291.929
292.13
292.321
292.504
292.678
292.843
292.995
293.129
293.242
293.336
293.422
293.517
293.644
293.812
294.009
294.212
294.404
294.606
294.877
295.318
296.075
297.273
298.856
300.445
302.444
305.778
288.577
289.362
290
290.465
290.805
291.084
291.337
291.575
291.802
292.02
292.231
292.436
292.635
292.829
293.015
293.192
293.348
293.472
293.565
293.633
293.694
293.767
293.877
294.041
294.25
294.47
294.696
294.972
295.391
296.102
297.257
298.751
300.316
302.332
305.733
288.592
289.396
290.032
290.485
290.82
291.099
291.353
291.592
291.821
292.044
292.264
292.481
292.699
292.919
293.143
293.359
293.553
293.7
293.804
293.872
293.92
293.968
294.041
294.165
294.351
294.572
294.812
295.098
295.506
296.175
297.265
298.736
300.241
302.252
305.701
288.601
289.405
290.034
290.486
290.82
291.099
291.352
291.591
291.821
292.044
292.263
292.481
292.699
292.922
293.152
293.388
293.623
293.844
294.002
294.092
294.147
294.19
294.245
294.342
294.5
294.715
294.97
295.278
295.7
296.349
297.356
298.738
300.236
302.248
305.7
288.604
289.405
290.03
290.475
290.803
291.077
291.326
291.561
291.786
292.005
292.22
292.436
292.655
292.88
293.115
293.36
293.61
293.848
294.062
294.233
294.337
294.403
294.463
294.549
294.69
294.896
295.16
295.492
295.94
296.6
297.57
298.816
300.239
302.244
305.703
288.596
289.377
289.976
290.406
290.725
290.99
291.228
291.451
291.665
291.873
292.077
292.279
292.484
292.697
292.928
293.178
293.45
293.74
294.023
294.265
294.453
294.58
294.673
294.766
294.897
295.091
295.356
295.707
296.186
296.872
297.828
298.991
300.317
302.291
305.719
288.568
289.307
289.891
290.322
290.643
290.907
291.144
291.366
291.578
291.782
291.981
292.175
292.363
292.546
292.727
292.926
293.161
293.449
293.778
294.127
294.445
294.692
294.871
295.014
295.166
295.369
295.647
296.026
296.548
297.267
298.207
299.288
300.546
302.467
305.777
288.556
289.283
289.871
290.312
290.637
290.903
291.14
291.362
291.574
291.778
291.978
292.172
292.361
292.543
292.718
292.887
293.058
293.243
293.495
293.83
294.231
294.632
294.957
295.211
295.422
295.646
295.932
296.325
296.867
297.6
298.513
299.53
300.74
302.628
305.832
288.552
289.277
289.868
290.312
290.642
290.911
291.151
291.375
291.591
291.803
292.011
292.215
292.409
292.589
292.753
292.907
293.06
293.223
293.412
293.663
294.023
294.473
294.934
295.322
295.668
295.978
296.314
296.729
297.277
297.986
298.836
299.775
300.928
302.777
305.884
288.55
289.28
289.885
290.347
290.691
290.971
291.223
291.462
291.695
291.925
292.153
292.373
292.573
292.747
292.894
293.02
293.139
293.264
293.414
293.612
293.892
294.3
294.8
295.317
295.769
296.211
296.651
297.14
297.723
298.421
299.217
300.089
301.175
302.948
305.94
288.563
289.327
289.967
290.45
290.809
291.105
291.376
291.636
291.893
292.15
292.405
292.645
292.855
293.022
293.149
293.247
293.329
293.41
293.507
293.642
293.853
294.171
294.626
295.19
295.759
296.267
296.799
297.372
298.014
298.737
299.523
300.366
301.419
303.139
306.012
288.598
289.422
290.095
290.588
290.955
291.264
291.552
291.833
292.116
292.403
292.692
292.962
293.182
293.34
293.449
293.524
293.583
293.636
293.696
293.779
293.912
294.138
294.499
295.016
295.634
296.254
296.827
297.448
298.134
298.883
299.674
300.513
301.561
303.264
306.067
288.634
289.509
290.203
290.699
291.07
291.389
291.692
291.994
292.301
292.622
292.95
293.25
293.473
293.619
293.715
293.781
293.833
293.88
293.929
293.988
294.073
294.213
294.457
294.851
295.409
296.072
296.77
297.449
298.156
298.92
299.723
300.566
301.615
303.314
306.086
288.663
289.568
290.264
290.749
291.114
291.435
291.744
292.053
292.366
292.691
293.025
293.347
293.623
293.804
293.915
293.992
294.054
294.11
294.164
294.22
294.285
294.375
294.52
294.784
295.198
295.777
296.475
297.247
298.054
298.879
299.715
300.57
301.623
303.314
306.085
288.665
289.572
290.267
290.752
291.116
291.436
291.746
292.054
292.366
292.688
293.018
293.342
293.631
293.864
294.022
294.132
294.219
294.295
294.367
294.436
294.503
294.577
294.671
294.821
295.106
295.538
296.136
296.862
297.685
298.574
299.5
300.442
301.543
303.255
306.065
288.662
289.564
290.257
290.739
291.101
291.419
291.723
292.023
292.325
292.638
292.965
293.3
293.615
293.876
294.072
294.216
294.328
294.426
294.517
294.605
294.689
294.771
294.856
294.962
295.132
295.452
295.917
296.549
297.331
298.244
299.232
300.225
301.363
303.115
306.009
288.659
289.555
290.243
290.722
291.081
291.395
291.695
291.993
292.293
292.604
292.933
293.279
293.615
293.908
294.133
294.295
294.423
294.536
294.643
294.748
294.851
294.951
295.049
295.152
295.28
295.49
295.89
296.468
297.228
298.153
299.162
300.164
301.307
303.073
305.991
288.659
289.554
290.239
290.714
291.071
291.384
291.682
291.976
292.27
292.572
292.891
293.233
293.586
293.91
294.175
294.372
294.516
294.637
294.751
294.867
294.987
295.109
295.232
295.356
295.49
295.661
295.943
296.468
297.22
298.146
299.16
300.161
301.302
303.072
305.993
288.652
289.535
290.21
290.677
291.027
291.331
291.618
291.896
292.172
292.451
292.747
293.076
293.447
293.833
294.169
294.419
294.596
294.733
294.857
294.982
295.114
295.255
295.405
295.563
295.731
295.926
296.186
296.594
297.257
298.164
299.174
300.17
301.309
303.08
306.003
288.643
289.516
290.188
290.652
290.998
291.299
291.583
291.856
292.124
292.394
292.679
292.999
293.37
293.774
294.155
294.455
294.667
294.823
294.956
295.086
295.226
295.379
295.547
295.734
295.941
296.18
296.484
296.916
297.552
298.401
299.356
300.299
301.405
303.164
306.035
288.643
289.518
290.188
290.652
290.998
291.299
291.583
291.855
292.123
292.393
292.678
292.999
293.378
293.804
294.226
294.554
294.778
294.942
295.08
295.215
295.358
295.516
295.694
295.895
296.125
296.397
296.741
297.209
297.858
298.687
299.59
300.485
301.553
303.271
306.076
288.651
289.534
290.201
290.656
290.999
291.299
291.581
291.851
292.116
292.383
292.665
292.982
293.362
293.81
294.271
294.662
294.929
295.1
295.24
295.378
295.526
295.691
295.878
296.091
296.335
296.623
296.983
297.459
298.098
298.888
299.74
300.599
301.647
303.346
306.108
288.655
289.539
290.203
290.655
290.992
291.287
291.561
291.823
292.075
292.327
292.587
292.877
293.224
293.659
294.165
294.651
295.011
295.241
295.405
295.553
295.707
295.881
296.081
296.314
296.581
296.89
297.264
297.737
298.344
299.075
299.868
300.69
301.715
303.392
306.125
288.654
289.532
290.188
290.635
290.968
291.258
291.526
291.779
292.019
292.253
292.487
292.736
293.023
293.385
293.855
294.408
294.926
295.297
295.539
295.717
295.882
296.06
296.27
296.517
296.806
297.141
297.535
298.011
298.593
299.274
300.011
300.793
301.789
303.438
306.138
288.644
289.508
290.16
290.606
290.94
291.227
291.492
291.739
291.973
292.196
292.411
292.625
292.854
293.128
293.497
294.004
294.609
295.167
295.578
295.851
296.054
296.247
296.463
296.718
297.018
297.367
297.774
298.253
298.817
299.462
300.16
300.91
301.877
303.494
306.155
288.637
289.492
290.138
290.58
290.909
291.193
291.453
291.696
291.925
292.143
292.354
292.564
292.783
293.032
293.35
293.79
294.373
295.005
295.542
295.931
296.21
296.443
296.676
296.94
297.25
297.611
298.028
298.506
299.05
299.657
300.318
301.038
301.975
303.558
306.178
288.637
289.492
290.138
290.579
290.908
291.192
291.452
291.695
291.924
292.141
292.352
292.561
292.779
293.027
293.343
293.782
294.371
295.019
295.573
296.001
296.334
296.613
296.88
297.166
297.489
297.858
298.28
298.76
299.297
299.884
300.516
301.21
302.12
303.659
306.218
288.637
289.491
290.132
290.571
290.9
291.183
291.442
291.683
291.909
292.123
292.329
292.532
292.74
292.969
293.253
293.65
294.219
294.919
295.571
296.071
296.448
296.756
297.05
297.358
297.696
298.078
298.506
298.982
299.509
300.08
300.693
301.37
302.263
303.775
306.267
288.632
289.47
290.099
290.534
290.86
291.139
291.394
291.63
291.852
292.061
292.258
292.445
292.628
292.821
293.046
293.356
293.841
294.557
295.354
295.995
296.462
296.841
297.177
297.518
297.882
298.279
298.713
299.188
299.702
300.253
300.845
301.5
302.371
303.856
306.294
288.624
289.447
290.067
290.497
290.821
291.098
291.351
291.588
291.81
292.018
292.216
292.403
292.584
292.767
292.968
293.219
293.579
294.136
294.906
295.709
296.369
296.834
297.217
297.587
297.976
298.402
298.862
299.354
299.874
300.422
301.003
301.648
302.508
303.96
306.33
288.614
289.42
290.031
290.459
290.781
291.055
291.305
291.538
291.757
291.964
292.16
292.346
292.522
292.693
292.864
293.05
293.286
293.652
294.274
295.151
296.02
296.698
297.184
297.581
297.978
298.407
298.874
299.376
299.906
300.465
301.057
301.708
302.567
304.004
306.343
288.596
289.375
289.975
290.402
290.723
290.995
291.242
291.472
291.689
291.893
292.085
292.267
292.439
292.602
292.761
292.923
293.105
293.351
293.758
294.452
295.382
296.303
297.006
297.523
297.969
298.424
298.911
299.434
299.984
300.553
301.143
301.784
302.632
304.051
306.356
288.586
289.347
289.939
290.365
290.685
290.954
291.199
291.427
291.642
291.845
292.039
292.223
292.399
292.567
292.73
292.892
293.059
293.249
293.504
293.92
294.634
295.624
296.626
297.394
297.948
298.434
298.947
299.495
300.069
300.649
301.241
301.879
302.713
304.107
306.373
288.57
289.308
289.89
290.318
290.639
290.907
291.149
291.375
291.587
291.789
291.981
292.163
292.337
292.502
292.661
292.814
292.966
293.127
293.314
293.581
294.044
294.848
295.919
296.951
297.77
298.397
298.942
299.495
300.072
300.669
301.272
301.912
302.737
304.109
306.369
288.557
289.276
289.851
290.28
290.602
290.87
291.112
291.337
291.548
291.75
291.942
292.125
292.299
292.466
292.626
292.781
292.934
293.09
293.26
293.466
293.765
294.281
295.153
296.265
297.29
298.111
298.813
299.454
300.072
300.681
301.295
301.945
302.772
304.132
306.378
288.545
289.245
289.814
290.243
290.564
290.831
291.07
291.292
291.502
291.701
291.892
292.073
292.248
292.416
292.578
292.736
292.894
293.051
293.211
293.384
293.594
293.927
294.569
295.616
296.892
298.016
298.782
299.439
300.064
300.679
301.296
301.947
302.775
304.134
306.377
288.534
289.221
289.788
290.22
290.544
290.81
291.048
291.269
291.478
291.676
291.865
292.046
292.221
292.39
292.556
292.72
292.88
293.041
293.206
293.378
293.562
293.774
294.055
294.634
295.712
297.027
298.306
299.294
300.019
300.653
301.276
301.909
302.709
304.047
306.326
288.525
289.204
289.769
290.203
290.53
290.797
291.035
291.255
291.463
291.661
291.851
292.034
292.211
292.382
292.551
292.72
292.889
293.06
293.236
293.416
293.597
293.773
293.961
294.213
294.648
295.43
296.596
297.916
299.147
300.136
300.935
301.67
302.503
303.824
306.203
288.521
289.194
289.76
290.196
290.523
290.791
291.03
291.25
291.458
291.656
291.847
292.032
292.212
292.391
292.566
292.74
292.915
293.095
293.284
293.485
293.694
293.896
294.081
294.258
294.471
294.818
295.478
296.563
297.917
299.265
300.428
301.4
302.357
303.733
306.169
288.518
289.193
289.76
290.196
290.524
290.791
291.03
291.253
291.466
291.67
291.866
292.053
292.233
292.407
292.58
292.754
292.933
293.121
293.323
293.545
293.782
294.021
294.242
294.432
294.601
294.803
295.159
295.847
296.981
298.399
299.801
300.993
302.089
303.565
306.127
288.518
289.195
289.77
290.215
290.548
290.82
291.064
291.289
291.501
291.703
291.895
292.081
292.262
292.438
292.613
292.788
292.968
293.158
293.362
293.59
293.841
294.108
294.373
294.606
294.797
294.965
295.178
295.59
296.363
297.588
299.053
300.432
301.66
303.245
306.02
288.519
289.204
289.79
290.242
290.581
290.858
291.105
291.335
291.553
291.761
291.96
292.15
292.334
292.513
292.688
292.863
293.04
293.224
293.42
293.636
293.88
294.151
294.438
294.709
294.943
295.142
295.332
295.584
296.086
297
298.361
299.853
301.173
302.835
305.856
288.521
289.216
289.81
290.268
290.614
290.898
291.154
291.391
291.615
291.83
292.036
292.237
292.432
292.624
292.813
292.999
293.181
293.365
293.557
293.764
293.995
294.258
294.538
294.81
295.07
295.31
295.522
295.737
296.074
296.77
297.959
299.474
300.841
302.539
305.716
288.531
289.245
289.848
290.306
290.65
290.936
291.194
291.437
291.67
291.897
292.118
292.336
292.55
292.766
292.984
293.199
293.405
293.604
293.802
294.01
294.235
294.487
294.754
295.024
295.291
295.546
295.772
295.982
296.241
296.767
297.878
299.404
300.776
302.469
305.696
288.539
289.266
289.865
290.313
290.653
290.94
291.2
291.445
291.681
291.913
292.145
292.383
292.63
292.885
293.149
293.414
293.662
293.892
294.113
294.327
294.547
294.783
295.033
295.296
295.569
295.84
296.09
296.328
296.602
297.063
298.033
299.505
300.858
302.534
305.729
288.551
289.274
289.866
290.313
290.653
290.939
291.199
291.444
291.68
291.912
292.145
292.384
292.633
292.898
293.186
293.5
293.842
294.178
294.475
294.723
294.956
295.184
295.419
295.673
295.944
296.221
296.496
296.789
297.165
297.771
298.791
300.065
301.291
302.921
305.912
288.553
289.274
289.86
290.295
290.626
290.906
291.161
291.401
291.633
291.863
292.096
292.336
292.59
292.861
293.155
293.483
293.844
294.237
294.641
295.032
295.345
295.615
295.879
296.151
296.435
296.736
297.065
297.456
297.977
298.724
299.718
300.764
301.858
303.45
306.151
288.532
289.218
289.77
290.193
290.517
290.789
291.036
291.271
291.503
291.734
291.965
292.193
292.419
292.657
292.924
293.249
293.646
294.108
294.613
295.098
295.533
295.905
296.244
296.571
296.903
297.251
297.646
298.128
298.748
299.533
300.421
301.298
302.3
303.856
306.318
288.517
289.181
289.739
290.172
290.501
290.777
291.027
291.266
291.5
291.733
291.964
292.193
292.415
292.631
292.847
293.074
293.372
293.804
294.36
294.978
295.568
296.091
296.551
296.963
297.361
297.773
298.231
298.767
299.41
300.145
300.909
301.675
302.622
304.138
306.426
288.514
289.179
289.739
290.173
290.506
290.785
291.04
291.285
291.528
291.771
292.013
292.247
292.465
292.668
292.863
293.069
293.306
293.615
294.091
294.718
295.414
296.079
296.661
297.185
297.673
298.162
298.683
299.259
299.892
300.557
301.225
301.922
302.826
304.289
306.478
288.513
289.182
289.75
290.198
290.542
290.833
291.102
291.366
291.632
291.906
292.176
292.422
292.631
292.804
292.959
293.118
293.309
293.559
293.905
294.447
295.152
295.917
296.624
297.219
297.778
298.328
298.894
299.488
300.107
300.735
301.363
302.029
302.902
304.327
306.486
288.523
289.213
289.808
290.277
290.639
290.949
291.244
291.54
291.85
292.173
292.485
292.748
292.941
293.078
293.184
293.286
293.409
293.581
293.843
294.226
294.799
295.529
296.325
297.09
297.759
298.346
298.936
299.541
300.155
300.766
301.377
302.031
302.895
304.308
306.472
288.556
289.301
289.93
290.412
290.786
291.114
291.435
291.769
292.133
292.52
292.881
293.15
293.318
293.418
293.49
293.556
293.636
293.748
293.917
294.178
294.568
295.127
295.839
296.633
297.439
298.208
298.904
299.535
300.152
300.761
301.371
302.023
302.873
304.265
306.447
288.584
289.367
290.004
290.478
290.847
291.183
291.525
291.893
292.301
292.736
293.131
293.402
293.56
293.655
293.723
293.786
293.856
293.944
294.062
294.227
294.467
294.83
295.349
296.017
296.8
297.639
298.479
299.289
300.036
300.724
301.359
302.015
302.864
304.253
306.439
288.587
289.372
290.009
290.482
290.851
291.188
291.532
291.905
292.313
292.75
293.167
293.495
293.695
293.814
293.897
293.966
294.036
294.113
294.204
294.316
294.463
294.676
294.979
295.409
295.99
296.713
297.538
298.411
299.276
300.1
300.886
301.655
302.583
304.041
306.357
288.583
289.362
289.998
290.469
290.837
291.176
291.52
291.889
292.3
292.742
293.166
293.524
293.776
293.94
294.052
294.142
294.224
294.309
294.398
294.495
294.606
294.738
294.921
295.172
295.513
295.979
296.594
297.349
298.211
299.121
300.025
300.911
301.924
303.481
306.123
288.579
289.359
289.994
290.463
290.831
291.17
291.516
291.887
292.298
292.753
293.221
293.618
293.887
294.058
294.181
294.282
294.377
294.476
294.583
294.703
294.831
294.962
295.097
295.256
295.479
295.794
296.225
296.799
297.552
298.471
299.482
300.487
301.564
303.167
305.991
288.585
289.367
289.998
290.463
290.83
291.171
291.519
291.891
292.305
292.766
293.253
293.699
294.041
294.253
294.37
294.463
294.552
294.649
294.761
294.895
295.047
295.206
295.369
295.539
295.717
295.93
296.237
296.732
297.424
298.336
299.392
300.419
301.501
303.126
305.981
288.587
289.365
289.981
290.43
290.787
291.118
291.447
291.788
292.159
292.58
293.06
293.569
294.02
294.341
294.544
294.656
294.744
294.835
294.943
295.076
295.23
295.398
295.579
295.78
296.003
296.255
296.56
296.96
297.571
298.447
299.496
300.506
301.578
303.209
306.019
288.567
289.308
289.888
290.309
290.64
290.937
291.222
291.504
291.8
292.139
292.555
293.079
293.679
294.235
294.606
294.824
294.955
295.06
295.17
295.297
295.441
295.601
295.78
295.984
296.223
296.511
296.874
297.353
298.011
298.886
299.871
300.797
301.815
303.411
306.1
288.533
289.221
289.77
290.174
290.487
290.763
291.027
291.286
291.548
291.822
292.15
292.583
293.167
293.861
294.501
294.926
295.164
295.321
295.455
295.588
295.726
295.873
296.04
296.238
296.478
296.779
297.174
297.706
298.414
299.279
300.181
301.032
302.012
303.585
306.174
288.532
289.216
289.761
290.161
290.473
290.75
291.016
291.277
291.537
291.801
292.084
292.435
292.924
293.593
294.344
294.966
295.369
295.619
295.803
295.964
296.114
296.263
296.426
296.62
296.865
297.184
297.61
298.171
298.876
299.675
300.481
301.272
302.234
303.792
306.269
288.532
289.216
289.758
290.155
290.464
290.737
290.998
291.253
291.509
291.774
292.057
292.384
292.813
293.423
294.205
294.957
295.505
295.871
296.122
296.318
296.496
296.675
296.872
297.1
297.378
297.727
298.172
298.729
299.384
300.09
300.802
301.532
302.469
304.008
306.366
288.529
289.198
289.725
290.11
290.408
290.669
290.916
291.158
291.402
291.652
291.919
292.219
292.591
293.112
293.851
294.704
295.414
295.914
296.277
296.555
296.788
297.009
297.243
297.512
297.83
298.213
298.67
299.202
299.791
300.409
301.041
301.721
302.625
304.126
306.412
288.526
289.191
289.718
290.106
290.401
290.655
290.893
291.126
291.355
291.583
291.816
292.064
292.349
292.725
293.302
294.112
295.015
295.768
296.261
296.617
296.94
297.247
297.547
297.856
298.196
298.587
299.037
299.544
300.09
300.657
301.242
301.89
302.768
304.228
306.444
288.524
289.186
289.716
290.106
290.399
290.652
290.889
291.118
291.342
291.565
291.789
292.017
292.252
292.502
292.803
293.317
294.186
295.172
296.007
296.565
296.941
297.301
297.671
298.054
298.451
298.869
299.319
299.801
300.312
300.841
301.397
302.017
302.859
304.264
306.449
288.516
289.181
289.716
290.107
290.401
290.655
290.891
291.12
291.343
291.566
291.788
292.016
292.249
292.489
292.74
293.004
293.339
294.027
295.061
296.006
296.732
297.247
297.661
298.065
298.492
298.938
299.4
299.876
300.369
300.883
301.428
302.04
302.866
304.26
306.435
288.515
289.183
289.732
290.137
290.441
290.699
290.939
291.17
291.395
291.616
291.838
292.064
292.293
292.525
292.758
292.998
293.256
293.593
294.146
294.986
295.934
296.753
297.403
297.954
298.459
298.926
299.395
299.874
300.369
300.883
301.427
302.037
302.863
304.231
306.409
288.523
289.221
289.799
290.218
290.529
290.793
291.039
291.275
291.505
291.736
291.972
292.218
292.475
292.737
292.989
293.213
293.403
293.577
293.796
294.176
294.818
295.689
296.554
297.296
297.96
298.604
299.218
299.801
300.347
300.873
301.421
302.033
302.855
304.219
306.394
288.548
289.291
289.887
290.306
290.617
290.884
291.132
291.371
291.605
291.84
292.083
292.344
292.631
292.942
293.259
293.559
293.811
293.996
294.125
294.267
294.568
295.112
295.854
296.603
297.291
297.944
298.584
299.215
299.841
300.467
301.105
301.794
302.658
304.04
306.324
288.566
289.337
289.94
290.358
290.667
290.932
291.18
291.419
291.652
291.885
292.125
292.384
292.679
293.025
293.412
293.803
294.154
294.417
294.574
294.667
294.784
295.118
295.706
296.358
296.975
297.568
298.171
298.805
299.477
300.173
300.88
301.62
302.539
303.995
306.322
288.587
289.387
290.001
290.415
290.719
290.98
291.222
291.453
291.677
291.903
292.139
292.396
292.692
293.047
293.474
293.954
294.411
294.772
295.004
295.134
295.226
295.404
295.8
296.37
296.962
297.533
298.13
298.775
299.461
300.164
300.873
301.613
302.539
304.006
306.342
288.606
289.432
290.056
290.475
290.782
291.042
291.281
291.508
291.728
291.948
292.178
292.43
292.726
293.094
293.566
294.125
294.693
295.157
295.482
295.7
295.833
295.956
296.179
296.529
296.995
297.55
298.148
298.796
299.479
300.179
300.886
301.627
302.573
304.103
306.414
288.64
289.513
290.162
290.59
290.901
291.165
291.406
291.631
291.847
292.06
292.282
292.53
292.824
293.192
293.686
294.292
294.938
295.529
296.008
296.355
296.592
296.783
296.996
297.282
297.653
298.119
298.694
299.333
299.991
300.638
301.28
301.974
302.905
304.393
306.537
288.66
289.556
290.221
290.666
290.99
291.266
291.517
291.749
291.966
292.176
292.389
292.621
292.89
293.229
293.658
294.242
294.929
295.627
296.26
296.767
297.153
297.472
297.775
298.105
298.491
298.947
299.469
300.027
300.592
301.153
301.724
302.359
303.231
304.628
306.617
288.661
289.559
290.226
290.673
291.003
291.287
291.547
291.786
292.008
292.22
292.429
292.645
292.881
293.133
293.438
293.872
294.451
295.168
295.969
296.685
297.21
297.637
298.026
298.413
298.822
299.27
299.754
300.262
300.782
301.312
301.863
302.477
303.308
304.652
306.613
288.653
289.541
290.224
290.685
291.023
291.31
291.571
291.81
292.032
292.243
292.451
292.664
292.887
293.125
293.365
293.614
293.937
294.393
295.003
295.728
296.503
297.218
297.838
298.369
298.819
299.272
299.754
300.26
300.778
301.31
301.862
302.474
303.299
304.629
306.583
288.644
289.53
290.225
290.706
291.062
291.366
291.641
291.894
292.126
292.345
292.557
292.772
292.989
293.197
293.39
293.577
293.77
293.996
294.296
294.702
295.232
295.879
296.592
297.318
298.035
298.694
299.306
299.889
300.46
301.031
301.614
302.243
303.057
304.371
306.459
288.641
289.528
290.223
290.706
291.064
291.373
291.658
291.924
292.173
292.412
292.65
292.897
293.151
293.395
293.601
293.762
293.897
294.031
294.191
294.389