/*--------------------------------*- C++ -*----------------------------------*\
| =========                 |                                                 |
| \\      /  F ield         | OpenFOAM: The Open Source CFD Toolbox           |
|  \\    /   O peration     | Version:  2.0.x                                 |
|   \\  /    A nd           | Web:      www.OpenFOAM.org                      |
|    \\/     M anipulation  |                                                 |
\*---------------------------------------------------------------------------*/
FoamFile
{
    version     2.0;
    format      ascii;
    class       volVectorField;
    location    "350";
    object      U;
}
// * * * * * * * * * * * * * * * * * * * * * * * * * * * * * * * * * * * * * //

dimensions      [0 1 -1 0 0 0 0];

internalField   nonuniform List<vector> 
78750
(
(-0.00214156 0.0133562 0.0157807)
(-0.00725648 0.0154792 0.0263427)
(-0.0126071 0.00674258 0.0288353)
(-0.0158467 -0.00505965 0.0290674)
(-0.0165194 -0.016269 0.0289627)
(-0.0142923 -0.0264454 0.0286083)
(-0.00974278 -0.0352107 0.0281438)
(-0.00333417 -0.0417259 0.0278135)
(0.00436605 -0.0462762 0.0275594)
(0.012909 -0.0488981 0.0274079)
(0.0216099 -0.0500147 0.0273164)
(0.0306531 -0.0494983 0.0272919)
(0.0389961 -0.047382 0.027462)
(0.0478289 -0.0487699 0.0267129)
(0.0560385 -0.0495484 0.0259181)
(0.0634359 -0.0482492 0.0252084)
(0.0700876 -0.0450988 0.025311)
(0.0757541 -0.0413425 0.0254197)
(0.0805086 -0.0364492 0.025492)
(0.0838497 -0.0327857 0.0256108)
(0.0868352 -0.0247815 0.0261882)
(0.0876201 -0.0217022 0.0261227)
(0.088261 -0.0169084 0.0262471)
(0.0873639 -0.0120511 0.026341)
(0.0855211 -0.00746025 0.0265013)
(0.0824193 -0.00275894 0.0265129)
(0.0778517 0.00209135 0.0267914)
(0.0722171 0.00775761 0.0265204)
(0.0657291 0.0123047 0.026563)
(0.0582116 0.0165624 0.0266915)
(0.0495552 0.0204746 0.0269607)
(0.0398782 0.0238544 0.0274136)
(0.0288763 0.0265645 0.0282278)
(0.0174731 0.030653 0.027921)
(0.00521346 0.0304759 0.0167947)
(0.000169485 0.013924 0.0111073)
(0.00142681 0.0157848 0.0199246)
(0.00459524 0.00242371 0.0217033)
(0.0087264 -0.0154673 0.0215979)
(0.0155654 -0.0411182 0.0203203)
(0.0224909 -0.0627295 0.020048)
(0.0298694 -0.0829743 0.0191218)
(0.0369796 -0.0965161 0.0183137)
(0.0434534 -0.105686 0.0175947)
(0.0499494 -0.109987 0.017157)
(0.055153 -0.111314 0.0168082)
(0.061385 -0.108232 0.0166708)
(0.0657193 -0.105481 0.0167037)
(0.0691698 -0.100793 0.0168663)
(0.0730954 -0.0914603 0.0175039)
(0.0753025 -0.0818907 0.0180346)
(0.0770879 -0.0722197 0.0184391)
(0.0783873 -0.0624777 0.0187666)
(0.0792246 -0.0526245 0.0191089)
(0.0794049 -0.0431722 0.0191161)
(0.0791917 -0.0335343 0.0191152)
(0.0784809 -0.0236069 0.0191135)
(0.077133 -0.0135384 0.0191622)
(0.074879 -0.00319178 0.0191182)
(0.0722993 0.00609896 0.0191066)
(0.068239 0.0220791 0.0195083)
(0.0646617 0.0315617 0.0196763)
(0.0595164 0.0400629 0.0198303)
(0.0545431 0.0468555 0.0199432)
(0.0473872 0.0564826 0.0204529)
(0.0400738 0.0662927 0.0212649)
(0.0317543 0.0758011 0.0222884)
(0.0222532 0.0855655 0.0229861)
(0.0118048 0.0955627 0.021469)
(0.00332258 0.086103 0.0143485)
(-0.0001152 -0.00525608 0.0079428)
(0.00295007 -0.0326859 0.0140247)
(0.00894977 -0.0691895 0.0148248)
(0.0168224 -0.103786 0.014164)
(0.0245368 -0.130135 0.0134072)
(0.0313767 -0.147099 0.0128547)
(0.0362253 -0.152343 0.0129167)
(0.0406875 -0.151711 0.0132291)
(0.0430584 -0.14953 0.0135211)
(0.0455828 -0.145018 0.0139538)
(0.047069 -0.139224 0.0143367)
(0.0482307 -0.132197 0.01467)
(0.0489038 -0.123814 0.0150076)
(0.0501155 -0.113788 0.0153376)
(0.0492881 -0.105208 0.0152848)
(0.0496675 -0.0957941 0.0152879)
(0.0494567 -0.0858015 0.0152724)
(0.0494803 -0.0752901 0.0152848)
(0.0491495 -0.0642035 0.0152823)
(0.0485209 -0.052527 0.0152685)
(0.0476932 -0.0403947 0.0152525)
(0.0466045 -0.0283186 0.0151625)
(0.045455 -0.0158851 0.0151645)
(0.0434132 0.00225726 0.0152396)
(0.0416291 0.0128447 0.0151935)
(0.0397438 0.0239725 0.015254)
(0.0376293 0.038426 0.0156467)
(0.0350448 0.0531875 0.0161258)
(0.0317414 0.0681589 0.0166853)
(0.0276652 0.0834116 0.0174706)
(0.0229497 0.0983892 0.0184336)
(0.0175499 0.113074 0.0194719)
(0.011337 0.127109 0.020395)
(0.00515061 0.13571 0.0183721)
(0.000629125 0.111578 0.0102941)
(0.000333997 -0.0178026 0.00536708)
(0.00407666 -0.0688639 0.00854926)
(0.00932478 -0.114134 0.00904612)
(0.0140807 -0.14234 0.00929441)
(0.017473 -0.154957 0.00964233)
(0.0195196 -0.158898 0.0100124)
(0.0211432 -0.159502 0.0103351)
(0.0221769 -0.158986 0.0104466)
(0.023405 -0.156489 0.0104595)
(0.0243025 -0.152412 0.0104401)
(0.0251519 -0.146844 0.0104997)
(0.0259998 -0.139972 0.0106478)
(0.026274 -0.131858 0.0109412)
(0.0269405 -0.121934 0.0117225)
(0.027443 -0.110932 0.0125698)
(0.0275213 -0.0993984 0.013239)
(0.0275804 -0.087574 0.0136576)
(0.0263608 -0.0752988 0.013533)
(0.0256703 -0.0623411 0.0132477)
(0.024593 -0.0492714 0.0129107)
(0.0236095 -0.0362335 0.0126766)
(0.0223625 -0.0227112 0.0124468)
(0.0211675 -0.00821423 0.0122345)
(0.0201101 0.00690304 0.0120297)
(0.0194249 0.0166922 0.0119562)
(0.0185181 0.0309445 0.0122034)
(0.0175796 0.0467093 0.0126475)
(0.0162155 0.0621624 0.0130511)
(0.0146603 0.078184 0.0136397)
(0.0126287 0.0951698 0.0145686)
(0.0105462 0.112766 0.0160056)
(0.00746601 0.130215 0.0175185)
(0.00428453 0.144861 0.0178085)
(0.00111347 0.15 0.0153629)
(-0.000359412 0.111237 0.00838184)
(0.00046422 -0.0358077 0.00382643)
(0.00330326 -0.10231 0.0064441)
(0.00616366 -0.145175 0.0073641)
(0.00833349 -0.166814 0.00777357)
(0.00989441 -0.176853 0.00802537)
(0.0112077 -0.18117 0.0082634)
(0.0124429 -0.181692 0.00854263)
(0.0134781 -0.179514 0.00887059)
(0.0143416 -0.175053 0.00933504)
(0.0149588 -0.168983 0.00980418)
(0.0153978 -0.161495 0.0102239)
(0.0156411 -0.152704 0.0106034)
(0.0157446 -0.142716 0.0109503)
(0.0156867 -0.131623 0.0112397)
(0.0156162 -0.11956 0.0114457)
(0.0152822 -0.106622 0.0115022)
(0.0148553 -0.0925076 0.011582)
(0.0148492 -0.0780573 0.0118192)
(0.0141408 -0.064047 0.0117383)
(0.0136641 -0.05047 0.0113232)
(0.0127176 -0.0372964 0.0105519)
(0.0121972 -0.0247194 0.0098371)
(0.0116777 -0.0123415 0.00926419)
(0.011313 0.000813615 0.00893097)
(0.0110132 0.010684 0.00889535)
(0.0106639 0.0240609 0.00928229)
(0.0102237 0.0399088 0.0100762)
(0.00980027 0.0579764 0.0112225)
(0.00894665 0.0764635 0.0122944)
(0.00777413 0.0951312 0.0131845)
(0.00626769 0.114618 0.014354)
(0.0043531 0.134119 0.0155643)
(0.00231115 0.148686 0.015442)
(0.00042608 0.151188 0.0129726)
(-0.000329479 0.105103 0.0064289)
(0.000373427 -0.0458744 0.00308721)
(0.00182857 -0.11614 0.00522813)
(0.00309627 -0.156445 0.00594751)
(0.00410363 -0.175186 0.0063222)
(0.00481272 -0.182705 0.0066167)
(0.00531661 -0.184957 0.00689697)
(0.00564407 -0.184349 0.00713972)
(0.00589037 -0.181574 0.00740258)
(0.006081 -0.176993 0.00768848)
(0.00625757 -0.17083 0.00804907)
(0.00640711 -0.163242 0.00852752)
(0.00652891 -0.154326 0.00912434)
(0.00662365 -0.14418 0.00979326)
(0.00670582 -0.132934 0.0104868)
(0.00677016 -0.120784 0.0111492)
(0.00683035 -0.107971 0.0116921)
(0.00690263 -0.094626 0.01201)
(0.00700125 -0.0806301 0.012036)
(0.00713331 -0.066194 0.0117811)
(0.00719457 -0.0519178 0.0112664)
(0.00735954 -0.0382859 0.0105452)
(0.00731564 -0.0253153 0.00964428)
(0.00732682 -0.0127993 0.00865338)
(0.00737929 -1.67589e-07 0.00777313)
(0.00734255 0.0104031 0.00736434)
(0.00721216 0.0238948 0.00742774)
(0.00713342 0.0396396 0.00805574)
(0.00699816 0.05735 0.00914415)
(0.00662135 0.0761589 0.0104076)
(0.00611214 0.0954539 0.0116924)
(0.00495063 0.117116 0.0128658)
(0.00345848 0.138151 0.0137444)
(0.00185297 0.152064 0.013329)
(0.000412939 0.152349 0.0109952)
(-0.000220162 0.101304 0.00507921)
(0.000209288 -0.0526778 0.002268)
(0.000980998 -0.126017 0.00400194)
(0.00163335 -0.165847 0.00466848)
(0.00214722 -0.184009 0.00502636)
(0.00253819 -0.191629 0.00530916)
(0.002859 -0.194276 0.00558383)
(0.00311454 -0.193909 0.00588025)
(0.00333344 -0.191269 0.00624782)
(0.00350763 -0.186841 0.00667645)
(0.00366214 -0.180806 0.00716871)
(0.00379625 -0.173306 0.00771802)
(0.00391709 -0.164509 0.00832563)
(0.00404245 -0.154547 0.00900482)
(0.004184 -0.143515 0.00975617)
(0.00435222 -0.131477 0.0105554)
(0.00454549 -0.118513 0.0113532)
(0.00475417 -0.104785 0.0120649)
(0.00497629 -0.0905484 0.0125751)
(0.00522149 -0.0760328 0.0127584)
(0.00548569 -0.0614772 0.0125199)
(0.00573197 -0.0472489 0.0118361)
(0.0059417 -0.0337766 0.0107756)
(0.00615609 -0.0212123 0.00947022)
(0.00640976 -0.00854472 0.00813974)
(0.00654447 0.00443693 0.00701348)
(0.00658346 0.0160294 0.00647968)
(0.00669932 0.0318801 0.00655669)
(0.00671805 0.050265 0.00737669)
(0.00652924 0.0707763 0.00876637)
(0.00600434 0.0935776 0.010486)
(0.00499074 0.117298 0.0115901)
(0.00355597 0.140033 0.0122452)
(0.00203917 0.154102 0.0116671)
(0.000706765 0.153288 0.00957362)
(-8.14507e-05 0.0997266 0.00431067)
(0.000130312 -0.0559428 0.00187928)
(0.000473855 -0.129684 0.00347188)
(0.000719139 -0.168561 0.003994)
(0.000935737 -0.185924 0.00425498)
(0.00109208 -0.193022 0.00447189)
(0.00119997 -0.195359 0.00469758)
(0.00127666 -0.194851 0.00496149)
(0.00133531 -0.192213 0.00528113)
(0.00138467 -0.187832 0.00566637)
(0.00143035 -0.181946 0.00613495)
(0.00148837 -0.174721 0.00670832)
(0.00156543 -0.166277 0.00739771)
(0.00166255 -0.156727 0.00819929)
(0.00178781 -0.146184 0.00909381)
(0.00195106 -0.134753 0.0100513)
(0.00216589 -0.122509 0.0110348)
(0.0024447 -0.109491 0.0119902)
(0.00278734 -0.0957635 0.0128375)
(0.00318284 -0.0814745 0.0134655)
(0.00361698 -0.0668848 0.0137391)
(0.00406213 -0.052389 0.0135309)
(0.00446797 -0.0384621 0.0127837)
(0.00479877 -0.0252896 0.0115421)
(0.0051129 -0.0123513 0.00990501)
(0.00539327 0.00145284 0.00809315)
(0.0055344 0.0137837 0.00675703)
(0.00567024 0.0298967 0.0058006)
(0.00577118 0.0486321 0.00576547)
(0.00566295 0.0699 0.00669116)
(0.00526145 0.0936891 0.00820237)
(0.00446361 0.1194 0.00974543)
(0.00313757 0.143644 0.0101742)
(0.00181602 0.157427 0.00956059)
(0.000614051 0.155491 0.00771016)
(-0.000105734 0.0994203 0.00318208)
(2.8446e-05 -0.0578313 0.00169253)
(9.39322e-05 -0.132269 0.00297272)
(0.000160534 -0.171463 0.00323357)
(0.00029778 -0.189412 0.00336524)
(0.000429299 -0.197232 0.00348721)
(0.000558911 -0.200271 0.00364545)
(0.000679543 -0.200457 0.00386714)
(0.000783073 -0.198534 0.00416972)
(0.000879011 -0.194807 0.00457261)
(0.000973028 -0.189547 0.00507092)
(0.0010743 -0.182926 0.005665)
(0.00118671 -0.175073 0.00636542)
(0.00131651 -0.166091 0.00718404)
(0.00146969 -0.156078 0.00812775)
(0.00165013 -0.145129 0.00919373)
(0.00186288 -0.133341 0.0103643)
(0.00211567 -0.120795 0.0116033)
(0.00241947 -0.107548 0.0128509)
(0.00278505 -0.0936551 0.0140185)
(0.00319872 -0.0792049 0.0149809)
(0.00364666 -0.0644071 0.0155774)
(0.00409574 -0.0496387 0.015644)
(0.0044804 -0.0353347 0.0150712)
(0.00483012 -0.0215596 0.0138169)
(0.00520042 -0.0068759 0.011969)
(0.00537823 0.00759553 0.0100029)
(0.00544697 0.0230255 0.00815078)
(0.0055572 0.0433349 0.00671026)
(0.00545931 0.0663228 0.00645281)
(0.00507879 0.0923515 0.00721297)
(0.00436704 0.120373 0.0082564)
(0.00323598 0.146012 0.00860167)
(0.00202956 0.16004 0.0080113)
(0.000909512 0.157512 0.00644557)
(3.11144e-05 0.0996023 0.00280663)
(1.29035e-05 -0.0582771 0.00156821)
(-2.8247e-05 -0.132509 0.00259049)
(-4.03416e-05 -0.171723 0.00258098)
(8.50548e-05 -0.189722 0.00266215)
(0.000246847 -0.197624 0.00271743)
(0.000395284 -0.200739 0.00282142)
(0.00051397 -0.201006 0.00299969)
(0.000612505 -0.199198 0.00325866)
(0.000707558 -0.195688 0.00360523)
(0.00080512 -0.190727 0.00404516)
(0.000905244 -0.184483 0.00458647)
(0.00101492 -0.17708 0.00523675)
(0.00113559 -0.168622 0.00600602)
(0.0012699 -0.159209 0.00690403)
(0.00142407 -0.14893 0.00793565)
(0.00160424 -0.137864 0.00910021)
(0.00181639 -0.126076 0.0103879)
(0.00206715 -0.113612 0.0117732)
(0.00236405 -0.100502 0.0132055)
(0.00271709 -0.0867721 0.0146005)
(0.00311815 -0.0724943 0.0158271)
(0.00355303 -0.0579131 0.0167062)
(0.00398992 -0.0434869 0.017039)
(0.00438095 -0.0293484 0.0166755)
(0.00481627 -0.0144166 0.0154697)
(0.00523334 0.0029159 0.0133344)
(0.0054231 0.0188083 0.0111787)
(0.00564858 0.0401441 0.00865175)
(0.00571333 0.0645636 0.0070402)
(0.00536589 0.0920224 0.00686235)
(0.00468445 0.121769 0.00753987)
(0.00355665 0.149074 0.00775041)
(0.00227804 0.163905 0.00716771)
(0.00105655 0.161095 0.00578118)
(7.17068e-05 0.101218 0.0025687)
(-3.84333e-05 -0.0584433 0.00152204)
(-0.000149081 -0.13263 0.00227131)
(-0.000143775 -0.172327 0.0019919)
(3.41206e-05 -0.19164 0.00167818)
(0.000326577 -0.200542 0.00156024)
(0.000622501 -0.204438 0.00159154)
(0.000901908 -0.205402 0.00174023)
(0.00115159 -0.20427 0.00198743)
(0.00137671 -0.201411 0.00233549)
(0.00158408 -0.197079 0.00277691)
(0.0017837 -0.191442 0.00330881)
(0.00197308 -0.184625 0.00393911)
(0.00215267 -0.176727 0.0046804)
(0.00232435 -0.167843 0.00554588)
(0.00249173 -0.158067 0.00654903)
(0.00265785 -0.147494 0.00770216)
(0.0028277 -0.136207 0.00901155)
(0.00300848 -0.124265 0.010475)
(0.00320867 -0.111693 0.0120759)
(0.003437 -0.0985005 0.0137738)
(0.00370538 -0.0847008 0.0154914)
(0.00400716 -0.070358 0.0170888)
(0.00431764 -0.0556801 0.018359)
(0.00460275 -0.0410096 0.019061)
(0.00490993 -0.0263089 0.018963)
(0.00538832 -0.00907337 0.0178176)
(0.00573356 0.0103633 0.0155883)
(0.0059448 0.0310203 0.0126629)
(0.00607878 0.0593333 0.00917001)
(0.00572922 0.090603 0.00691531)
(0.00490889 0.123483 0.00635434)
(0.00355162 0.153186 0.00651162)
(0.00214688 0.169001 0.00619456)
(0.00084375 0.165806 0.00514667)
(-0.000103205 0.10326 0.00247272)
(-3.70822e-05 -0.0580311 0.00123215)
(-0.000133351 -0.1321 0.00140265)
(-3.75442e-05 -0.172365 0.00106095)
(0.000295472 -0.191855 0.000637648)
(0.00070222 -0.200933 0.000528339)
(0.00112691 -0.205032 0.000568273)
(0.00152978 -0.206228 0.000691925)
(0.00189011 -0.205335 0.000874731)
(0.00221809 -0.202726 0.00112804)
(0.00249953 -0.198659 0.00146124)
(0.00274412 -0.193305 0.00188107)
(0.00295936 -0.186798 0.00239112)
(0.00315409 -0.179249 0.00299694)
(0.00332837 -0.17076 0.00371395)
(0.0034761 -0.16143 0.00456611)
(0.00359801 -0.151357 0.00557185)
(0.00369653 -0.140628 0.00674786)
(0.00377551 -0.129309 0.00811061)
(0.00384103 -0.117431 0.00967315)
(0.00390091 -0.104988 0.0114363)
(0.00396355 -0.0919587 0.0133777)
(0.00404063 -0.0783457 0.0154261)
(0.00412944 -0.0642908 0.0174307)
(0.00420245 -0.0501004 0.0191522)
(0.0042423 -0.0355923 0.0203285)
(0.00438535 -0.0192095 0.0206233)
(0.00465689 0.00264857 0.0194276)
(0.00489654 0.0251283 0.0170573)
(0.00517282 0.0562637 0.013057)
(0.00492438 0.0902795 0.0100663)
(0.00410671 0.126599 0.00793612)
(0.00285699 0.158087 0.00639766)
(0.00173099 0.173722 0.00544016)
(0.000611552 0.16929 0.00438077)
(-0.000152159 0.103817 0.00222618)
(-9.04555e-05 -0.0573993 0.000947687)
(-0.000172397 -0.131718 0.000486185)
(4.0273e-05 -0.173148 -0.000274523)
(0.000591215 -0.194036 -0.000651895)
(0.00126876 -0.204026 -0.000762933)
(0.00196877 -0.208696 -0.000733477)
(0.00264897 -0.210339 -0.000616265)
(0.00326003 -0.209889 -0.000449357)
(0.00383448 -0.20771 -0.000229568)
(0.00434228 -0.204042 4.50573e-05)
(0.00479718 -0.199064 0.000380693)
(0.00519181 -0.192906 0.000786548)
(0.00552534 -0.185675 0.00127469)
(0.00579711 -0.17747 0.00185821)
(0.00600559 -0.168393 0.00255349)
(0.00615287 -0.158545 0.00337754)
(0.00624405 -0.148023 0.00434944)
(0.00628164 -0.136909 0.00549411)
(0.00626688 -0.125256 0.00684055)
(0.00620463 -0.11309 0.00841801)
(0.00610549 -0.100406 0.0102546)
(0.00597375 -0.0871785 0.0123688)
(0.00580669 -0.0734026 0.0147161)
(0.00558441 -0.0591495 0.0171621)
(0.00528239 -0.0445794 0.0194683)
(0.00500619 -0.0292694 0.0213758)
(0.00494662 -0.00883544 0.0224731)
(0.00485119 0.0141619 0.0218682)
(0.00488539 0.0474851 0.0186233)
(0.00502826 0.0876128 0.0135122)
(0.00464959 0.126692 0.0106648)
(0.00355661 0.160497 0.00803409)
(0.00242165 0.177088 0.00664699)
(0.00129274 0.172526 0.00535628)
(0.000234216 0.105162 0.00290116)
(-5.80059e-05 -0.0566869 0.000541263)
(4.13395e-05 -0.131603 -0.000142202)
(0.000646546 -0.174285 -0.0011951)
(0.00155403 -0.196094 -0.00167453)
(0.00261406 -0.2065 -0.00184274)
(0.00368617 -0.211303 -0.00188068)
(0.00474105 -0.212943 -0.00185499)
(0.00567525 -0.212482 -0.00180451)
(0.00656722 -0.210318 -0.00173482)
(0.00733546 -0.206703 -0.00163785)
(0.0080143 -0.201775 -0.00150683)
(0.00859511 -0.195658 -0.00133155)
(0.0090768 -0.188476 -0.0010986)
(0.00946157 -0.180336 -0.000797178)
(0.00976098 -0.171351 -0.000423928)
(0.00998146 -0.161625 3.57551e-05)
(0.0101252 -0.151252 0.000614163)
(0.0101875 -0.140306 0.00134351)
(0.0101632 -0.128862 0.00222839)
(0.0100943 -0.117051 0.00320956)
(0.00991213 -0.104756 0.00446039)
(0.00958245 -0.0918435 0.0062153)
(0.00916604 -0.078356 0.00847212)
(0.00863788 -0.0644778 0.0111485)
(0.00801408 -0.0505784 0.0140208)
(0.00739411 -0.0365333 0.0168925)
(0.00682974 -0.0180223 0.0199224)
(0.00613158 0.00846259 0.0222587)
(0.00575951 0.0366138 0.0221159)
(0.00591467 0.0794242 0.0184544)
(0.00561038 0.12467 0.0134494)
(0.00460674 0.162436 0.0105417)
(0.00308295 0.181615 0.00866193)
(0.0017101 0.177682 0.00707417)
(0.000384069 0.108738 0.00393317)
(-6.03185e-05 -0.0567132 -3.26704e-05)
(0.000291338 -0.133384 -0.00153207)
(0.00125036 -0.17842 -0.00228814)
(0.00256413 -0.201786 -0.00253894)
(0.00400054 -0.212897 -0.00264159)
(0.00544988 -0.217938 -0.00271013)
(0.00691522 -0.219575 -0.00276766)
(0.00821861 -0.219035 -0.0028188)
(0.00951537 -0.216702 -0.00288397)
(0.0106378 -0.212867 -0.00294734)
(0.0116399 -0.207745 -0.00300976)
(0.0124975 -0.201477 -0.00306963)
(0.0132133 -0.19415 -0.00312029)
(0.0137944 -0.185849 -0.0031543)
(0.0142479 -0.176703 -0.00317393)
(0.0145907 -0.166836 -0.00318303)
(0.0148056 -0.156328 -0.00312877)
(0.0148265 -0.145218 -0.00298698)
(0.0148772 -0.133453 -0.00287574)
(0.0146154 -0.121014 -0.00207582)
(0.0141403 -0.108037 -0.000467283)
(0.0136465 -0.0945893 0.00149086)
(0.0129596 -0.0806904 0.00385782)
(0.0120966 -0.0665111 0.00659639)
(0.0110909 -0.052519 0.00951637)
(0.0100163 -0.0387848 0.0124519)
(0.00885648 -0.0215223 0.0158743)
(0.00772847 0.00272804 0.0196734)
(0.00700535 0.0283754 0.0217955)
(0.00652972 0.0724104 0.0208968)
(0.00606929 0.1228 0.0164147)
(0.00489148 0.166029 0.0122162)
(0.00331409 0.18787 0.00965041)
(0.00169536 0.184175 0.00775416)
(0.000222449 0.11285 0.00432419)
(1.0106e-05 -0.0575589 -0.000830061)
(0.000818692 -0.136965 -0.00223755)
(0.0023103 -0.183979 -0.00271018)
(0.00404177 -0.208238 -0.00282658)
(0.00583295 -0.219573 -0.00293244)
(0.00759894 -0.224518 -0.00308624)
(0.00940629 -0.225863 -0.00328628)
(0.010995 -0.22503 -0.00348687)
(0.0126243 -0.22228 -0.00374807)
(0.0140386 -0.217917 -0.00403374)
(0.0153185 -0.212178 -0.00434424)
(0.0164168 -0.205267 -0.00468058)
(0.017324 -0.197361 -0.00504383)
(0.0180451 -0.188584 -0.00543889)
(0.0185339 -0.179012 -0.00589123)
(0.0189325 -0.168721 -0.00650343)
(0.0190331 -0.157547 -0.00693514)
(0.0190941 -0.145655 -0.00708086)
(0.0186934 -0.133304 -0.00636984)
(0.0183158 -0.120446 -0.00567226)
(0.0177815 -0.107105 -0.00496733)
(0.0169706 -0.0933941 -0.00392485)
(0.0160349 -0.0793659 -0.00247285)
(0.015001 -0.0651714 -0.000575239)
(0.013837 -0.0511485 0.0017142)
(0.012566 -0.037276 0.00433848)
(0.0111095 -0.0205701 0.00800801)
(0.00947381 0.00181638 0.013165)
(0.00822344 0.0245257 0.0174142)
(0.007055 0.0666715 0.0210625)
(0.00633443 0.12031 0.0195315)
(0.00500786 0.168695 0.0148941)
(0.00331057 0.193259 0.011369)
(0.00165608 0.189844 0.0087908)
(0.000194071 0.116491 0.00449774)
(4.63947e-05 -0.0604137 -0.00138605)
(0.0012311 -0.144231 -0.00261676)
(0.00308502 -0.193449 -0.00259199)
(0.00504613 -0.218312 -0.00244001)
(0.006998 -0.229585 -0.00248405)
(0.00889927 -0.234224 -0.00268908)
(0.0108695 -0.235094 -0.00301316)
(0.0125967 -0.233793 -0.00334472)
(0.0143904 -0.230409 -0.00378309)
(0.0159559 -0.225306 -0.00428146)
(0.0173913 -0.21874 -0.00483646)
(0.0186479 -0.210918 -0.00544775)
(0.0197085 -0.202032 -0.00611825)
(0.0205644 -0.192226 -0.00686011)
(0.0212485 -0.181527 -0.00768019)
(0.0215825 -0.169914 -0.00828302)
(0.0217883 -0.157818 -0.00884258)
(0.0217083 -0.145175 -0.00944416)
(0.021509 -0.131892 -0.0102448)
(0.0209483 -0.118122 -0.0108719)
(0.020177 -0.103989 -0.0111737)
(0.0192141 -0.089668 -0.0110218)
(0.0180966 -0.075277 -0.0103312)
(0.0168702 -0.0609108 -0.00906791)
(0.0155317 -0.0466644 -0.00727598)
(0.0140508 -0.0322315 -0.00501398)
(0.0123767 -0.0153043 -0.00175055)
(0.0105019 0.00613593 0.00329962)
(0.00904924 0.0267028 0.00746204)
(0.00750917 0.0655579 0.0128155)
(0.0064619 0.119341 0.0156459)
(0.00515315 0.172003 0.0142351)
(0.00339911 0.199823 0.011271)
(0.00164875 0.196818 0.00865986)
(0.000136951 0.120841 0.00428465)
(0.000171852 -0.064569 -0.00175571)
(0.00173177 -0.152962 -0.00234865)
(0.00376989 -0.203447 -0.00175978)
(0.00571447 -0.228 -0.00138495)
(0.00755699 -0.238695 -0.00137999)
(0.00933921 -0.242743 -0.00161638)
(0.0111946 -0.242958 -0.0020169)
(0.0128456 -0.240984 -0.00244571)
(0.0145456 -0.236741 -0.00301673)
(0.0160632 -0.230704 -0.00368071)
(0.0174651 -0.223155 -0.00442887)
(0.0187616 -0.214311 -0.00528651)
(0.0198114 -0.204479 -0.00623641)
(0.0207069 -0.193705 -0.00743442)
(0.021497 -0.181954 -0.00882254)
(0.0220471 -0.169468 -0.0103868)
(0.0223035 -0.156129 -0.0122961)
(0.0222811 -0.142011 -0.0143213)
(0.0219487 -0.127135 -0.0162264)
(0.0212864 -0.111701 -0.0177995)
(0.0203289 -0.0962405 -0.0189047)
(0.0191515 -0.0811446 -0.0194618)
(0.0178366 -0.0664996 -0.0194334)
(0.0164471 -0.0521801 -0.0188233)
(0.0150193 -0.0378194 -0.0175868)
(0.0135003 -0.022747 -0.0155636)
(0.0119974 -0.00637218 -0.0118748)
(0.0105984 0.0131796 -0.00629169)
(0.00949381 0.0316927 -0.000610544)
(0.00776855 0.0673366 0.00802845)
(0.00632409 0.120162 0.0140453)
(0.00450163 0.175426 0.0141846)
(0.00261406 0.205867 0.0119464)
(0.000941147 0.203448 0.00893521)
(-0.000252057 0.12444 0.00302713)
(0.000198826 -0.0706058 -0.00149312)
(0.00169459 -0.163805 -0.0011365)
(0.00341676 -0.2145 -0.000113241)
(0.00490714 -0.237977 0.000379424)
(0.00624627 -0.247792 0.000425666)
(0.00762743 -0.251151 0.000207542)
(0.00894443 -0.250869 -0.000118993)
(0.0103066 -0.248039 -0.000570819)
(0.0115943 -0.242928 -0.00114688)
(0.0128607 -0.236003 -0.00180005)
(0.013903 -0.227676 -0.00250084)
(0.0150658 -0.218015 -0.00351344)
(0.0159906 -0.207068 -0.00489356)
(0.0171925 -0.195067 -0.00677797)
(0.0177889 -0.182229 -0.00872112)
(0.0182858 -0.168204 -0.0110834)
(0.0184907 -0.152834 -0.013911)
(0.0182305 -0.136354 -0.0170526)
(0.0175979 -0.119176 -0.0201149)
(0.0166922 -0.10163 -0.0226062)
(0.0156028 -0.0846259 -0.0242946)
(0.0144078 -0.0687512 -0.025196)
(0.0131803 -0.0539294 -0.0253696)
(0.0119771 -0.0398753 -0.0248969)
(0.0108327 -0.0263026 -0.0237738)
(0.00986893 -0.0128116 -0.021828)
(0.00897074 0.00196134 -0.0190339)
(0.00843588 0.0161415 -0.0157704)
(0.00779045 0.0384543 -0.0100956)
(0.00643132 0.073806 -0.00122981)
(0.00440294 0.126088 0.00776054)
(0.00217319 0.182534 0.0105638)
(0.000289053 0.212655 0.00827717)
(-0.00061524 0.207544 0.00544123)
(-0.00063692 0.124128 0.0014389)
(0.000246751 -0.0758489 -0.000782613)
(0.00129318 -0.171669 0.0005497)
(0.00226648 -0.221453 0.00178978)
(0.00297498 -0.243626 0.00230687)
(0.0036046 -0.252695 0.00238344)
(0.00425454 -0.255646 0.00225795)
(0.00493719 -0.255 0.00201402)
(0.00566992 -0.251575 0.00166642)
(0.00641476 -0.245952 0.0012375)
(0.00704167 -0.238453 0.000643309)
(0.00815826 -0.229335 -0.00055509)
(0.00874766 -0.219009 -0.00166232)
(0.00950399 -0.207523 -0.00280547)
(0.00979204 -0.194665 -0.00403785)
(0.010259 -0.17994 -0.00612602)
(0.0102737 -0.163102 -0.00931289)
(0.00995589 -0.144338 -0.013678)
(0.00927797 -0.124616 -0.0187835)
(0.00832331 -0.105271 -0.0236826)
(0.00730772 -0.0869833 -0.0274531)
(0.00639107 -0.0699279 -0.0296835)
(0.00556446 -0.0547703 -0.0306967)
(0.00486302 -0.0411034 -0.0307295)
(0.00427748 -0.0286148 -0.0300218)
(0.00378578 -0.0170075 -0.0287666)
(0.00340888 -0.00571838 -0.0270488)
(0.00314717 0.00680329 -0.0245256)
(0.00290873 0.0217287 -0.0210188)
(0.00253193 0.0457281 -0.0150417)
(0.00196601 0.0838611 -0.00642679)
(0.000504356 0.136361 0.001266)
(-0.00109574 0.188317 0.00566967)
(-0.00145337 0.212706 0.00647258)
(-0.00158209 0.206103 0.0044584)
(-0.000816695 0.118953 -0.000130447)
(0.000163417 -0.0793145 0.000128922)
(0.000546061 -0.175581 0.00188635)
(0.000809065 -0.224176 0.00295044)
(0.00100879 -0.245445 0.00322558)
(0.00110828 -0.254108 0.00322202)
(0.00115842 -0.256847 0.00316753)
(0.00126312 -0.255976 0.00307183)
(0.00138196 -0.252334 0.00296976)
(0.00150353 -0.246426 0.00289462)
(0.00165709 -0.238526 0.00294937)
(0.00148407 -0.228751 0.0033315)
(0.00158542 -0.217292 0.00359305)
(0.00159212 -0.204209 0.003447)
(0.0015038 -0.18939 0.00257208)
(0.00134606 -0.172501 0.000534404)
(0.00121752 -0.153132 -0.00319208)
(0.001052 -0.131504 -0.00878674)
(0.000823518 -0.109296 -0.0157281)
(0.000512463 -0.0889539 -0.0227089)
(4.58518e-05 -0.0713226 -0.028275)
(-0.000334265 -0.0556512 -0.0315643)
(-0.000573445 -0.0420259 -0.0330599)
(-0.000704719 -0.0300133 -0.0333631)
(-0.000747605 -0.0189765 -0.0328432)
(-0.00073153 -0.00858087 -0.0317466)
(-0.000782558 0.00142787 -0.0302479)
(-0.000837752 0.0122579 -0.0278384)
(-0.00106445 0.0264727 -0.0239738)
(-0.00150252 0.0493863 -0.017713)
(-0.00183006 0.0869967 -0.00925165)
(-0.00153451 0.137555 0.000447276)
(-0.00117397 0.187222 0.00624991)
(-0.000927725 0.209061 0.00636694)
(-0.000387751 0.199026 0.0036444)
(0.000327891 0.111182 -0.000275399)
(-0.000106459 -0.0794089 0.000987819)
(-0.00046903 -0.17565 0.00302124)
(-0.000805178 -0.224176 0.0041102)
(-0.00112214 -0.245333 0.00467956)
(-0.00143933 -0.253738 0.00513302)
(-0.00162112 -0.256281 0.00540656)
(-0.00186868 -0.255132 0.00571578)
(-0.00208949 -0.251058 0.00606966)
(-0.00231331 -0.24452 0.00646929)
(-0.00252173 -0.235903 0.00680655)
(-0.00266784 -0.225611 0.00689354)
(-0.00287656 -0.213769 0.00685672)
(-0.00306635 -0.20046 0.00657688)
(-0.00314843 -0.185662 0.00573421)
(-0.00315312 -0.16908 0.00366)
(-0.0029178 -0.150114 0.00044195)
(-0.00240499 -0.128507 -0.00422722)
(-0.00165507 -0.104883 -0.0102939)
(-0.000823284 -0.0812001 -0.0166496)
(-0.000257399 -0.060454 -0.0236526)
(4.63803e-06 -0.0445435 -0.0293161)
(0.000237869 -0.0314321 -0.0325854)
(0.000359052 -0.0201456 -0.0342195)
(0.000531903 -0.0098689 -0.0347203)
(0.000729635 -0.000231623 -0.0344442)
(0.000820146 0.00897693 -0.0335527)
(0.000752859 0.0191422 -0.0316217)
(0.000411393 0.0319871 -0.0282057)
(-0.000129943 0.0516103 -0.0224026)
(-0.000309539 0.0850098 -0.0135418)
(6.59558e-05 0.13243 -0.00298617)
(0.00115397 0.180889 0.00350136)
(0.00163711 0.2041 0.00463527)
(0.00131696 0.196071 0.00370125)
(0.000559991 0.110985 0.000874426)
(-0.000103515 -0.0765025 0.00198755)
(-0.000759153 -0.172003 0.00428008)
(-0.00131798 -0.221462 0.00521111)
(-0.00160684 -0.243525 0.00558518)
(-0.00186689 -0.252672 0.00566047)
(-0.00203589 -0.255473 0.00575766)
(-0.00220095 -0.254517 0.00588018)
(-0.00233893 -0.250628 0.00603463)
(-0.00244801 -0.244296 0.00623128)
(-0.00252593 -0.235871 0.00647829)
(-0.00257372 -0.225625 0.00677609)
(-0.00259072 -0.213761 0.00710832)
(-0.00256552 -0.200415 0.00743901)
(-0.00248411 -0.185607 0.00774493)
(-0.00224566 -0.169208 0.00818816)
(-0.00184991 -0.15101 0.00809929)
(-0.0011424 -0.130584 0.00641922)
(1.81783e-05 -0.10756 0.00206527)
(0.0014878 -0.0827194 -0.00562231)
(0.00306014 -0.0585958 -0.0136892)
(0.00423086 -0.0377869 -0.020815)
(0.00459924 -0.0219218 -0.0270647)
(0.00479115 -0.00982342 -0.0311039)
(0.00492699 -0.000157925 -0.0333276)
(0.00503256 0.00928039 -0.0344194)
(0.00504783 0.0187584 -0.0346437)
(0.00492688 0.029096 -0.0338265)
(0.00454743 0.041422 -0.0316854)
(0.00378868 0.058214 -0.0274089)
(0.00291368 0.0850471 -0.0194608)
(0.00361828 0.129655 -0.009957)
(0.00386194 0.179009 -0.000677354)
(0.00295719 0.204438 0.00446093)
(0.0017501 0.198474 0.00469008)
(0.000390392 0.11421 0.00186519)
(-9.56609e-05 -0.073709 0.00167421)
(-0.000618389 -0.168566 0.00321939)
(-0.000916256 -0.219958 0.00417989)
(-0.00102392 -0.243292 0.0049612)
(-0.000855118 -0.253082 0.00534121)
(-0.000708818 -0.256393 0.00561143)
(-0.000513555 -0.255814 0.00581352)
(-0.000295002 -0.252234 0.0059885)
(-5.52741e-05 -0.246148 0.00618345)
(0.000202712 -0.237911 0.00644663)
(0.000477931 -0.227828 0.00682598)
(0.00076866 -0.216163 0.00736273)
(0.00107437 -0.203156 0.00808541)
(0.00140353 -0.188994 0.00897725)
(0.00177617 -0.173738 0.00992191)
(0.00224183 -0.15721 0.0107432)
(0.00287755 -0.1389 0.0111771)
(0.00377363 -0.117963 0.010573)
(0.005005 -0.0935322 0.00773463)
(0.00654205 -0.0658206 0.00127046)
(0.0079285 -0.0379592 -0.00860316)
(0.00884687 -0.0148926 -0.0178572)
(0.00905666 -0.000711228 -0.0240513)
(0.0090406 0.0110031 -0.0285549)
(0.00884622 0.021023 -0.0313576)
(0.00860318 0.0307123 -0.0328835)
(0.00832682 0.0411869 -0.0334211)
(0.00795252 0.0538854 -0.0326755)
(0.00734357 0.0708249 -0.0301354)
(0.00594586 0.0956861 -0.0245258)
(0.00445243 0.133578 -0.0143089)
(0.00400207 0.181852 -0.00348833)
(0.00323067 0.21023 0.00173049)
(0.00192154 0.205473 0.00302538)
(0.000537317 0.120523 0.00159533)
(-4.86623e-05 -0.0715756 0.00133481)
(-0.000213121 -0.167235 0.00267189)
(-0.00014615 -0.219969 0.00346535)
(0.000332772 -0.245121 0.00395644)
(0.000805604 -0.255838 0.00437426)
(0.00136482 -0.259716 0.00465863)
(0.00191423 -0.259529 0.0048345)
(0.00247345 -0.256328 0.00494243)
(0.00303246 -0.250595 0.00500839)
(0.00359055 -0.242712 0.00504116)
(0.0041462 -0.23297 0.00503212)
(0.00469711 -0.221594 0.00496155)
(0.00523753 -0.208771 0.00481986)
(0.0057574 -0.194639 0.00463231)
(0.00623932 -0.179274 0.00448233)
(0.00666844 -0.162682 0.0045149)
(0.00703472 -0.144713 0.00485537)
(0.00741201 -0.124974 0.00536415)
(0.00791177 -0.102621 0.00559866)
(0.0085983 -0.0764373 0.00471596)
(0.00955384 -0.0460102 0.000457839)
(0.0104017 -0.0157735 -0.00758662)
(0.01071 0.00541105 -0.0150825)
(0.0106115 0.0203608 -0.0209465)