/*--------------------------------*- C++ -*----------------------------------*\
| =========                 |                                                 |
| \\      /  F ield         | OpenFOAM: The Open Source CFD Toolbox           |
|  \\    /   O peration     | Version:  2.3.x                                 |
|   \\  /    A nd           | Web:      www.OpenFOAM.org                      |
|    \\/     M anipulation  |                                                 |
\*---------------------------------------------------------------------------*/
FoamFile
{
    version     2.0;
    format      ascii;
    class       volScalarField;
    location    "900";
    object      alphat;
}
// * * * * * * * * * * * * * * * * * * * * * * * * * * * * * * * * * * * * * //

dimensions      [1 -1 -1 0 0 0 0];

internalField   nonuniform List<scalar> 
78750
(
4.28293e-07
1.07135e-05
1.32476e-05
1.76081e-05
2.15051e-05
2.32067e-05
2.24005e-05
2.06279e-05
1.98354e-05
1.92979e-05
1.91774e-05
1.94212e-05
1.97273e-05
2.01128e-05
2.06175e-05
2.12133e-05
2.26256e-05
2.43262e-05
2.52418e-05
2.56649e-05
2.47371e-05
2.52102e-05
2.70128e-05
2.74981e-05
2.7716e-05
2.75648e-05
2.72077e-05
2.62753e-05
2.46666e-05
2.23638e-05
2.06459e-05
1.86801e-05
1.56411e-05
1.29835e-05
5.86183e-07
1.92464e-07
1.12957e-05
1.91927e-05
8.93599e-06
9.03593e-06
1.22909e-05
1.59106e-05
2.17907e-05
2.88279e-05
3.68342e-05
3.94125e-05
4.1743e-05
4.41666e-05
4.52909e-05
4.84558e-05
5.10695e-05
5.0071e-05
4.66323e-05
4.73128e-05
5.41593e-05
6.10188e-05
6.19857e-05
6.17893e-05
6.04023e-05
5.70992e-05
5.45207e-05
5.23035e-05
3.75231e-05
3.76306e-05
3.8183e-05
2.69918e-05
2.10736e-05
1.74341e-05
1.96996e-05
6.57716e-07
5.0971e-08
4.51289e-06
4.9187e-06
6.25677e-06
9.3909e-06
1.52247e-05
2.51815e-05
4.22007e-05
5.67567e-05
6.35633e-05
6.72597e-05
6.93831e-05
6.94346e-05
6.85097e-05
6.64161e-05
6.63075e-05
6.51627e-05
6.53589e-05
6.77651e-05
6.5684e-05
6.25755e-05
5.94302e-05
5.6007e-05
5.24232e-05
5.05985e-05
4.71367e-05
3.5141e-05
3.68316e-05
3.72163e-05
2.63838e-05
2.23814e-05
1.8363e-05
1.81492e-05
3.14224e-05
8.25662e-07
6.36699e-08
3.98895e-06
7.3112e-06
1.31867e-05
2.45645e-05
4.25834e-05
6.05472e-05
7.1271e-05
7.64933e-05
7.99815e-05
8.33783e-05
8.43285e-05
8.30258e-05
7.9227e-05
7.48169e-05
6.87904e-05
6.54149e-05
6.21299e-05
5.64374e-05
5.27652e-05
5.01135e-05
4.77422e-05
4.55152e-05
4.33966e-05
3.97641e-05
3.22291e-05
3.48691e-05
3.64002e-05
2.87141e-05
2.45563e-05
1.86748e-05
1.52729e-05
1.82541e-05
2.90279e-05
8.84714e-07
1.0918e-07
4.05154e-06
9.37326e-06
1.92289e-05
3.42931e-05
4.9306e-05
6.09161e-05
7.01014e-05
7.66364e-05
7.79202e-05
7.49081e-05
7.26558e-05
7.08293e-05
6.959e-05
6.75504e-05
6.44246e-05
6.07335e-05
5.60647e-05
5.12895e-05
4.7112e-05
4.42055e-05
4.262e-05
4.14603e-05
3.90501e-05
3.42693e-05
3.73032e-05
3.80341e-05
3.03701e-05
2.61385e-05
2.11954e-05
1.59992e-05
1.36305e-05
1.80318e-05
2.53819e-05
8.81863e-07
2.16942e-07
4.85076e-06
1.22596e-05
2.70097e-05
4.89288e-05
6.61146e-05
7.50125e-05
7.9441e-05
8.09518e-05
8.13629e-05
8.02314e-05
7.70395e-05
7.22908e-05
6.61722e-05
5.99418e-05
5.38822e-05
4.80682e-05
4.33367e-05
4.06496e-05
4.02633e-05
4.16328e-05
4.33331e-05
4.3569e-05
4.2114e-05
4.55554e-05
4.64127e-05
3.88448e-05
3.16923e-05
2.45591e-05
1.82103e-05
1.37277e-05
1.28562e-05
1.94548e-05
1.88659e-05
8.34481e-07
2.64621e-07
5.13352e-06
1.34781e-05
2.95731e-05
5.13822e-05
6.75894e-05
7.60423e-05
7.97346e-05
7.94418e-05
7.61951e-05
7.11382e-05
6.58623e-05
6.14899e-05
5.79559e-05
5.40551e-05
4.93804e-05
4.55279e-05
4.27032e-05
4.07905e-05
4.01706e-05
4.09689e-05
4.29182e-05
4.51833e-05
4.56553e-05
4.37484e-05
4.36881e-05
3.86962e-05
2.95419e-05
2.24337e-05
1.66173e-05
1.26578e-05
1.21497e-05
1.9279e-05
1.62623e-05
7.75796e-07
3.42105e-07
5.67671e-06
1.51609e-05
3.34863e-05
5.55659e-05
7.0597e-05
7.73002e-05
7.84824e-05
7.72414e-05
7.49496e-05
7.17714e-05
6.7729e-05
6.27167e-05
5.75845e-05
5.29933e-05
4.91312e-05
4.54121e-05
4.18268e-05
3.91314e-05
3.77119e-05
3.74335e-05
3.82209e-05
4.00193e-05
4.34152e-05
5.01574e-05
5.13868e-05
4.30091e-05
3.33154e-05
2.34459e-05
1.57796e-05
1.17436e-05
1.18714e-05
2.0334e-05
1.39436e-05
7.55603e-07
3.49281e-07
5.75152e-06
1.54055e-05
3.40048e-05
5.59253e-05
6.97745e-05
7.61079e-05
7.775e-05
7.63297e-05
7.31818e-05
6.92974e-05
6.52547e-05
6.1263e-05
5.7218e-05
5.30049e-05
4.88589e-05
4.48904e-05
4.12937e-05
3.82071e-05
3.61846e-05
3.56251e-05
3.66251e-05
3.91199e-05
4.22019e-05
4.68492e-05
4.68617e-05
3.99574e-05
3.20845e-05
2.29628e-05
1.53417e-05
1.13872e-05
1.16601e-05
2.05882e-05
1.27222e-05
7.50547e-07
3.51148e-07
5.75665e-06
1.53773e-05
3.41085e-05
5.67609e-05
7.05501e-05
7.61032e-05
7.71226e-05
7.57226e-05
7.31175e-05
6.99689e-05
6.66037e-05
6.31362e-05
5.96112e-05
5.6017e-05
5.23204e-05
4.85544e-05
4.48034e-05
4.11321e-05
3.76251e-05
3.4597e-05
3.25626e-05
3.21215e-05
3.39291e-05
4.01612e-05
4.36458e-05
3.84365e-05
3.10171e-05
2.2313e-05
1.51274e-05
1.11992e-05
1.16105e-05
2.10277e-05
1.15399e-05
7.54939e-07
3.49953e-07
5.75625e-06
1.53592e-05
3.3687e-05
5.57089e-05
6.98528e-05
7.62217e-05
7.79986e-05
7.70808e-05
7.46597e-05
7.14576e-05
6.78595e-05
6.40908e-05
6.03012e-05
5.66045e-05
5.30356e-05
4.95799e-05
4.62409e-05
4.30813e-05
4.00692e-05
3.71246e-05
3.42262e-05
3.15137e-05
2.97554e-05
3.29341e-05
3.59089e-05
3.26867e-05
2.8286e-05
2.1393e-05
1.48553e-05
1.11938e-05
1.17132e-05
2.15784e-05
1.08894e-05
7.8202e-07
3.46308e-07
5.71273e-06
1.5034e-05
3.28731e-05
5.54425e-05
7.05743e-05
7.76979e-05
8.00943e-05
7.96852e-05
7.77254e-05
7.49676e-05
7.18181e-05
6.83801e-05
6.46928e-05
6.08416e-05
5.69093e-05
5.29621e-05
4.90677e-05
4.53462e-05
4.18864e-05
3.86807e-05
3.55156e-05
3.20952e-05
2.91397e-05
3.09725e-05
3.19778e-05
2.81049e-05
2.48294e-05
1.96707e-05
1.43486e-05
1.11375e-05
1.18597e-05
2.2114e-05
1.03255e-05
8.22101e-07
3.54466e-07
5.68288e-06
1.50236e-05
3.29106e-05
5.50555e-05
7.01944e-05
7.77195e-05
8.06164e-05
8.05865e-05
7.88372e-05
7.61525e-05
7.30617e-05
6.96039e-05
6.60141e-05
6.24585e-05
5.89844e-05
5.54776e-05
5.18437e-05
4.81173e-05
4.43869e-05
4.06275e-05
3.66891e-05
3.25096e-05
2.90236e-05
3.02319e-05
2.98996e-05
2.52708e-05
2.21793e-05
1.80417e-05
1.3634e-05
1.09622e-05
1.20553e-05
2.31402e-05
9.79101e-06
8.60056e-07
3.68589e-07
5.75032e-06
1.53031e-05
3.35576e-05
5.58624e-05
7.0995e-05
7.86138e-05
8.16047e-05
8.1636e-05
8.00226e-05
7.7672e-05
7.52478e-05
7.18918e-05
6.79548e-05
6.46103e-05
6.15112e-05
5.83147e-05
5.48015e-05
5.09477e-05
4.714e-05
4.32323e-05
3.87658e-05
3.38254e-05
2.95574e-05
2.97849e-05
2.88149e-05
2.36527e-05
2.00246e-05
1.63646e-05
1.27815e-05
1.07593e-05
1.2396e-05
2.46222e-05
9.29187e-06
8.87905e-07
3.86436e-07
5.79973e-06
1.55028e-05
3.41705e-05
5.66027e-05
7.1508e-05
7.91389e-05
8.23548e-05
8.25436e-05
8.08028e-05
7.75389e-05
7.31512e-05
6.98405e-05
6.77432e-05
6.5766e-05
6.36459e-05
6.10432e-05
5.80841e-05
5.4721e-05
5.05268e-05
4.57902e-05
4.06881e-05
3.53002e-05
3.03885e-05
2.9475e-05
2.8452e-05
2.28997e-05
1.85442e-05
1.52278e-05
1.21972e-05
1.06346e-05
1.26902e-05
2.5717e-05
8.9519e-06
9.16274e-07
4.06144e-07
5.88751e-06
1.58769e-05
3.53748e-05
5.84044e-05
7.30283e-05
8.01835e-05
8.29087e-05
8.25254e-05
8.04487e-05
7.71757e-05
7.34943e-05
7.07616e-05
6.92571e-05
6.75455e-05
6.54443e-05
6.3121e-05
6.03493e-05
5.7169e-05
5.36259e-05
4.94962e-05
4.45219e-05
3.86204e-05
3.30948e-05
2.88733e-05
2.79785e-05
2.37792e-05
1.78226e-05
1.43922e-05
1.16784e-05
1.04027e-05
1.27521e-05
2.65769e-05
8.67727e-06
9.50005e-07
4.31275e-07
5.98019e-06
1.62529e-05
3.65407e-05
5.97884e-05
7.36894e-05
8.00954e-05
8.21018e-05
8.09065e-05
7.79058e-05
7.43461e-05
7.18141e-05
7.03717e-05
6.92086e-05
6.83347e-05
6.73361e-05
6.58427e-05
6.37406e-05
6.09313e-05
5.73015e-05
5.27379e-05
4.74893e-05
4.17826e-05
3.58957e-05
3.03163e-05
2.82288e-05
2.35935e-05
1.73166e-05
1.36179e-05
1.10992e-05
1.02525e-05
1.32835e-05
2.86112e-05
8.3524e-06
9.68719e-07
4.60853e-07
6.07889e-06
1.67002e-05
3.79672e-05
6.13639e-05
7.42639e-05
7.97803e-05
8.09403e-05
7.87561e-05
7.48577e-05
7.16334e-05
6.96758e-05
6.85295e-05
6.83438e-05
6.87505e-05
6.9049e-05
6.85627e-05
6.72743e-05
6.54052e-05
6.27978e-05
5.87779e-05
5.29055e-05
4.56816e-05
3.8263e-05
3.18685e-05
2.9015e-05
2.34809e-05
1.68151e-05
1.29671e-05
1.06923e-05
1.03431e-05
1.41538e-05
3.01643e-05
8.10057e-06
9.72461e-07
5.04163e-07
6.22441e-06
1.73197e-05
3.97704e-05
6.31348e-05
7.482e-05
7.89772e-05
7.82741e-05
7.43628e-05
7.06605e-05
6.80444e-05
6.64063e-05
6.64507e-05
6.78556e-05
6.97755e-05
7.12803e-05
7.15629e-05
7.06393e-05
6.91652e-05
6.72336e-05
6.39254e-05
5.81854e-05
5.00339e-05
4.11287e-05
3.61905e-05
3.20625e-05
2.34964e-05
1.66821e-05
1.27995e-05
1.06043e-05
1.04164e-05
1.44777e-05
3.03836e-05
7.97519e-06
9.89157e-07
5.54296e-07
6.39765e-06
1.80894e-05
4.19867e-05
6.51362e-05
7.51497e-05
7.74578e-05
7.41326e-05
6.97959e-05
6.61961e-05
6.34987e-05
6.32877e-05
6.53014e-05
6.85441e-05
7.19199e-05
7.43848e-05
7.51871e-05
7.43172e-05
7.27899e-05
7.11831e-05
6.8494e-05
6.34743e-05
5.60623e-05
4.72927e-05
4.17566e-05
3.53093e-05
2.50768e-05
1.75285e-05
1.30796e-05
1.06267e-05
1.03351e-05
1.43818e-05
3.07607e-05
7.91443e-06
1.02597e-06
6.09119e-07
6.6131e-06
1.89992e-05
4.43322e-05
6.66923e-05
7.47156e-05
7.41598e-05
6.98304e-05
6.50051e-05
6.0591e-05
5.92666e-05
6.10152e-05
6.49831e-05
6.99754e-05
7.45935e-05
7.77536e-05
7.8833e-05
7.78599e-05
7.61081e-05
7.47538e-05
7.27632e-05
6.86697e-05
6.22532e-05
5.36624e-05
4.68872e-05
3.81906e-05
2.67501e-05
1.83992e-05
1.32613e-05
1.05228e-05
1.03412e-05
1.50895e-05
3.23146e-05
7.68787e-06
1.03281e-06
6.50796e-07
6.79339e-06
1.98237e-05
4.64629e-05
6.78502e-05
7.39298e-05
7.1642e-05
6.53565e-05
5.93647e-05
5.62239e-05
5.65057e-05
5.98203e-05
6.51317e-05
7.10705e-05
7.63771e-05
8.00699e-05
8.13787e-05
8.03224e-05
7.83403e-05
7.71202e-05
7.57702e-05
7.25831e-05
6.724e-05
5.90108e-05
5.01434e-05
3.81505e-05
2.62994e-05
1.81804e-05
1.31673e-05
1.07759e-05
1.11672e-05
1.71235e-05
3.27714e-05
7.51708e-06
1.01129e-06
6.80766e-07
6.91075e-06
2.03951e-05
4.78571e-05
6.82564e-05
7.23058e-05
6.82778e-05
6.17259e-05
5.5932e-05
5.30943e-05
5.38125e-05
5.77225e-05
6.38087e-05
7.06082e-05
7.66229e-05
8.07211e-05
8.24151e-05
8.17461e-05
7.97614e-05
7.85313e-05
7.75596e-05
7.48314e-05
6.98445e-05
6.1696e-05
5.22947e-05
3.98517e-05
2.7488e-05
1.87136e-05
1.33561e-05
1.10205e-05
1.17345e-05
1.82257e-05
3.25833e-05
7.48409e-06
1.00197e-06
7.02917e-07
7.01949e-06
2.09266e-05
4.88567e-05
6.83497e-05
7.13434e-05
6.67895e-05
5.99032e-05
5.3893e-05
5.08308e-05
5.1254e-05
5.49908e-05
6.1273e-05
6.87897e-05
7.58457e-05
8.09789e-05
8.34327e-05
8.32698e-05
8.14826e-05
8.02469e-05
7.95956e-05
7.73866e-05
7.27093e-05
6.45419e-05
5.53306e-05
4.28742e-05
3.02121e-05
2.08022e-05
1.45119e-05
1.14356e-05
1.17887e-05
1.82161e-05
3.26437e-05
7.39773e-06
1.01527e-06
7.2217e-07
7.10395e-06
2.14593e-05
5.00603e-05
6.85519e-05
7.10481e-05
6.66448e-05
5.92719e-05
5.29219e-05
4.94473e-05
4.90583e-05
5.18837e-05
5.78388e-05
6.56768e-05
7.36202e-05
8.00731e-05
8.38478e-05
8.4637e-05
8.31498e-05
8.18713e-05
8.12722e-05
7.93562e-05
7.48953e-05
6.65277e-05
5.6452e-05
4.36179e-05
3.11235e-05
2.1798e-05
1.54339e-05
1.21781e-05
1.25756e-05
1.97487e-05
3.24589e-05
7.29197e-06
1.01693e-06
7.32257e-07
7.13414e-06
2.16964e-05
5.03653e-05
6.82664e-05
7.0835e-05
6.60222e-05
5.89849e-05
5.32219e-05
4.94679e-05
4.81014e-05
4.94501e-05
5.34809e-05
6.0561e-05
6.94193e-05
7.70873e-05
8.21663e-05
8.40505e-05
8.3305e-05
8.21381e-05
8.14971e-05
7.97037e-05
7.43915e-05
6.67699e-05
5.64739e-05
4.32884e-05
3.11643e-05
2.1921e-05
1.58382e-05
1.29303e-05
1.37697e-05
2.17047e-05
3.23987e-05
7.30879e-06
1.01119e-06
7.4243e-07
7.17689e-06
2.181e-05
5.03891e-05
6.79507e-05
7.06226e-05
6.68743e-05
6.12212e-05
5.51216e-05
5.02407e-05
4.75046e-05
4.72505e-05
5.0012e-05
5.53793e-05
6.28508e-05
7.15556e-05
7.86082e-05
8.21828e-05
8.26881e-05
8.20526e-05
8.14194e-05
7.94467e-05
7.40517e-05
6.67665e-05
5.60785e-05
4.36814e-05
3.25986e-05
2.33155e-05
1.68428e-05
1.36525e-05
1.43766e-05
2.23086e-05
3.27234e-05
7.35465e-06
1.0208e-06
7.45291e-07
7.19227e-06
2.18238e-05
5.01566e-05
6.75243e-05
7.0598e-05
6.79872e-05
6.30001e-05
5.77089e-05
5.27749e-05
4.86318e-05
4.62351e-05
4.64196e-05
4.9747e-05
5.62924e-05
6.43901e-05
7.25897e-05
7.8862e-05
8.13905e-05
8.17857e-05
8.15556e-05
7.97423e-05
7.41323e-05
6.67357e-05
5.58881e-05
4.38853e-05
3.3611e-05
2.47313e-05
1.8082e-05
1.45165e-05
1.5059e-05
2.32349e-05
3.30278e-05
7.34311e-06
1.04434e-06
7.44576e-07
7.1893e-06
2.18485e-05
4.95702e-05
6.66213e-05
7.02503e-05
6.8427e-05
6.45934e-05
6.0314e-05
5.59762e-05
5.17192e-05
4.78774e-05
4.53921e-05
4.55861e-05
4.88583e-05
5.57347e-05
6.41033e-05
7.17435e-05
7.70885e-05
7.9119e-05
7.94724e-05
7.80035e-05
7.27385e-05
6.52485e-05
5.44926e-05
4.27942e-05
3.2888e-05
2.46984e-05
1.87043e-05
1.55699e-05
1.66269e-05
2.58546e-05
3.25857e-05
7.33348e-06
1.04248e-06
7.35035e-07
7.16079e-06
2.16134e-05
4.8573e-05
6.57261e-05
7.02861e-05
6.94863e-05
6.64242e-05
6.27236e-05
5.89426e-05
5.51233e-05
5.12125e-05
4.74337e-05
4.46379e-05
4.42814e-05
4.71572e-05
5.36748e-05
6.16337e-05
6.83812e-05
7.27517e-05
7.45009e-05
7.3623e-05
7.00634e-05
6.30208e-05
5.24949e-05
4.16794e-05
3.22002e-05
2.45144e-05
1.91229e-05
1.65619e-05
1.82348e-05
2.81013e-05
3.2707e-05
7.41056e-06
1.04194e-06
7.24834e-07
7.14411e-06
2.14298e-05
4.78281e-05
6.52453e-05
7.0465e-05
7.07491e-05
6.86882e-05
6.56295e-05
6.22451e-05
5.8763e-05
5.51135e-05
5.12282e-05
4.72839e-05
4.40186e-05
4.27457e-05
4.46274e-05
4.99142e-05
5.72911e-05
6.34055e-05
6.72376e-05
6.85734e-05
6.71282e-05
6.02963e-05
5.05607e-05
4.13279e-05
3.26353e-05
2.51968e-05
1.98464e-05
1.73317e-05
1.91347e-05
2.91819e-05
3.30095e-05
7.47783e-06
1.05654e-06
7.13711e-07
7.12382e-06
2.13078e-05
4.7088e-05
6.48409e-05
7.10115e-05
7.21696e-05
7.08607e-05
6.84407e-05
6.56439e-05
6.24977e-05
5.90471e-05
5.53099e-05
5.12803e-05
4.71274e-05
4.34701e-05
4.14386e-05
4.21422e-05
4.58398e-05
5.19915e-05
5.79732e-05
6.16137e-05
6.23262e-05
5.70466e-05
4.84397e-05
4.02539e-05
3.23281e-05
2.55029e-05
2.04404e-05
1.80887e-05
2.02219e-05
3.08954e-05
3.30535e-05
7.50371e-06
1.07447e-06
6.97032e-07
7.07887e-06
2.10634e-05
4.64389e-05
6.47702e-05
7.18183e-05
7.37891e-05
7.34534e-05
7.15947e-05
6.90915e-05
6.6148e-05
6.28789e-05
5.92856e-05
5.53494e-05
5.10648e-05
4.65988e-05
4.24948e-05
3.96799e-05
3.90909e-05
4.11501e-05
4.59172e-05
5.12767e-05
5.47146e-05
5.21848e-05
4.53391e-05
3.82145e-05
3.11847e-05
2.5032e-05
2.07268e-05
1.90492e-05
2.1972e-05
3.34849e-05
3.28656e-05
7.57858e-06
1.07562e-06
6.77913e-07
7.02014e-06
2.07524e-05
4.56883e-05
6.44718e-05
7.22515e-05
7.48245e-05
7.51635e-05
7.42983e-05
7.23128e-05
6.97105e-05
6.6668e-05
6.32029e-05
5.93519e-05
5.51121e-05
5.04883e-05
4.56538e-05
4.11081e-05
3.75857e-05
3.58834e-05
3.65319e-05
3.96737e-05
4.48385e-05
4.59434e-05
4.17187e-05
3.62473e-05
3.02225e-05
2.47767e-05
2.09391e-05
1.97532e-05
2.32583e-05
3.51839e-05
3.30152e-05
7.6692e-06
1.07777e-06
6.56517e-07
6.94377e-06
2.04113e-05
4.49408e-05
6.42478e-05
7.2901e-05
7.65268e-05
7.73144e-05
7.65926e-05
7.52832e-05
7.3282e-05
7.06162e-05
6.73685e-05
6.36043e-05
5.93771e-05
5.46964e-05
4.95956e-05
4.42872e-05
3.92385e-05
3.50357e-05
3.23784e-05
3.20545e-05
3.54397e-05
3.81362e-05
3.67765e-05
3.3972e-05
2.9474e-05
2.48096e-05
2.13174e-05
2.0327e-05
2.39581e-05
3.59227e-05
3.40467e-05
7.8204e-06
1.10782e-06
6.38205e-07
6.85547e-06
2.00931e-05
4.46929e-05
6.50838e-05
7.47223e-05
7.88995e-05
8.02646e-05
8.0071e-05
7.89033e-05
7.71357e-05
7.47741e-05
7.18058e-05
6.82159e-05
6.40674e-05
5.93882e-05
5.41571e-05
4.84348e-05
4.24647e-05
3.671e-05
3.18723e-05
2.89065e-05
2.99968e-05
3.17349e-05
3.13701e-05
3.09176e-05
2.83038e-05
2.45619e-05
2.14053e-05
2.05496e-05
2.4365e-05
3.66683e-05
3.46314e-05
7.94769e-06
1.14965e-06
6.28114e-07
6.76068e-06
1.98124e-05
4.43663e-05
6.51227e-05
7.51967e-05
7.98361e-05
8.19992e-05
8.28053e-05
8.21582e-05
8.07483e-05
7.87048e-05
7.60602e-05
7.27957e-05
6.88248e-05
6.42212e-05
5.89946e-05
5.30263e-05
4.64319e-05
3.96175e-05
3.32911e-05
2.85755e-05
2.75799e-05
2.72646e-05
2.63944e-05
2.6739e-05
2.58631e-05
2.35185e-05
2.13171e-05
2.11519e-05
2.57927e-05
3.88234e-05
3.40624e-05
7.96e-06
1.15908e-06
6.2762e-07
6.73313e-06
1.97059e-05
4.38617e-05
6.4443e-05
7.5255e-05
8.10388e-05
8.40226e-05
8.51488e-05
8.52111e-05
8.4289e-05
8.26453e-05
8.02373e-05
7.71612e-05
7.34537e-05
6.90069e-05
6.38473e-05
5.78865e-05
5.09324e-05
4.33417e-05
3.58071e-05
2.95789e-05
2.65239e-05
2.50257e-05
2.34383e-05
2.30965e-05
2.31104e-05
2.21559e-05
2.11083e-05
2.18687e-05
2.75511e-05
4.09731e-05
3.37066e-05
8.0418e-06
1.15917e-06
6.33863e-07
6.70751e-06
1.98088e-05
4.4683e-05
6.61615e-05
7.73974e-05
8.3183e-05
8.60233e-05
8.70997e-05
8.72758e-05
8.66603e-05
8.53677e-05
8.34021e-05
8.07551e-05
7.74222e-05
7.34075e-05
6.84949e-05
6.26251e-05
5.56878e-05
4.78742e-05
3.97979e-05
3.22543e-05
2.60743e-05
2.36802e-05
2.23762e-05
2.09784e-05
2.09536e-05
2.07984e-05
2.06701e-05
2.2301e-05
2.8517e-05
4.18919e-05
3.3782e-05
8.11159e-06
1.16617e-06
6.46425e-07
6.72302e-06
2.01174e-05
4.59024e-05
6.74308e-05
7.83342e-05
8.42439e-05
8.70428e-05
8.8304e-05
8.85115e-05
8.80465e-05
8.70108e-05
8.53769e-05
8.30525e-05
8.0054e-05
7.63223e-05
7.20079e-05
6.68981e-05
6.09333e-05
5.35034e-05
4.45419e-05
3.53704e-05
2.74883e-05
2.40951e-05
2.15006e-05
1.95079e-05
1.97065e-05
1.99214e-05
2.0184e-05
2.1941e-05
2.80919e-05
4.14924e-05
3.48355e-05
8.27274e-06
1.224e-06
6.64329e-07
6.76197e-06
2.03302e-05
4.61611e-05
6.72927e-05
7.83686e-05
8.43765e-05
8.76059e-05
8.93595e-05
9.00387e-05
8.99717e-05
8.92842e-05
8.79843e-05
8.60591e-05
8.3505e-05
8.02032e-05
7.60455e-05
7.09416e-05
6.48583e-05
5.79342e-05
4.96993e-05
3.98172e-05
3.01616e-05
2.53991e-05
2.14599e-05
1.84398e-05
1.83681e-05
1.88193e-05
1.93503e-05
2.13914e-05
2.79751e-05
4.20967e-05
3.46694e-05
8.2434e-06
1.25805e-06
6.89368e-07
6.85935e-06
2.09112e-05
4.76202e-05
6.8422e-05
7.88894e-05
8.4784e-05
8.8245e-05
9.03219e-05
9.13152e-05
9.15463e-05
9.11792e-05
9.01966e-05
8.85656e-05
8.63519e-05
8.36796e-05
8.05197e-05
7.68868e-05
7.22216e-05
6.53523e-05
5.55375e-05
4.40792e-05
3.31907e-05
2.6553e-05
2.10635e-05
1.75411e-05
1.7078e-05
1.76612e-05
1.87751e-05
2.1575e-05
2.93853e-05
4.4349e-05
3.31022e-05
8.1868e-06
1.25673e-06
7.10074e-07
6.94378e-06
2.14742e-05
4.88423e-05
6.91154e-05
7.93102e-05
8.52029e-05
8.87262e-05
9.09451e-05
9.22391e-05
9.27721e-05
9.25956e-05
9.16605e-05
8.99222e-05
8.74463e-05
8.44187e-05
8.10327e-05
7.76727e-05
7.42808e-05
6.97486e-05
6.19188e-05
4.99896e-05
3.68619e-05
2.73349e-05
2.07845e-05
1.71586e-05
1.62283e-05
1.68167e-05
1.85251e-05
2.23324e-05
3.14301e-05
4.60711e-05
3.19653e-05
8.06478e-06
1.21059e-06
7.28516e-07
7.05049e-06
2.19625e-05
4.9523e-05
6.96401e-05
7.93684e-05
8.46661e-05
8.77973e-05
8.99959e-05
9.15138e-05
9.24393e-05
9.27311e-05
9.22104e-05
9.07617e-05
8.84087e-05
8.5312e-05
8.17279e-05
7.82495e-05
7.5194e-05
7.17465e-05
6.57629e-05
5.5747e-05
4.28348e-05
3.08963e-05
2.17942e-05
1.70275e-05
1.58456e-05
1.63127e-05
1.81635e-05
2.26062e-05
3.19593e-05
4.59871e-05
3.21603e-05
8.08853e-06
1.20389e-06
7.36298e-07
7.09076e-06
2.23641e-05
5.06866e-05
6.98893e-05
7.87559e-05
8.35575e-05
8.64828e-05
8.86442e-05
9.03599e-05
9.16714e-05
9.23448e-05
9.21618e-05
9.09995e-05
8.88535e-05
8.58269e-05
8.21946e-05
7.86641e-05
7.58124e-05
7.30847e-05
6.83517e-05
5.97393e-05
4.79135e-05
3.69862e-05
2.61075e-05
1.85317e-05
1.56437e-05
1.57016e-05
1.78023e-05
2.24646e-05
3.17295e-05
4.59644e-05
3.30918e-05
8.21801e-06
1.23471e-06
7.41099e-07
7.14929e-06
2.27713e-05
5.13594e-05
6.98637e-05
7.81405e-05
8.26129e-05
8.55751e-05
8.78549e-05
8.97431e-05
9.13177e-05
9.24181e-05
9.2798e-05
9.21491e-05
9.0392e-05
8.7637e-05
8.42429e-05
8.0964e-05
7.85682e-05
7.66264e-05
7.27298e-05
6.43274e-05
5.19002e-05
4.10115e-05
2.94568e-05
2.06439e-05
1.65695e-05
1.58476e-05
1.73853e-05
2.10773e-05
3.02029e-05
4.65986e-05
3.16089e-05
8.09132e-06
1.26063e-06
7.42902e-07
7.16838e-06
2.30195e-05
5.17577e-05
6.98148e-05
7.77032e-05
8.18711e-05
8.46576e-05
8.70309e-05
8.92937e-05
9.13388e-05
9.28649e-05
9.35679e-05
9.32755e-05
9.17984e-05
8.91762e-05
8.57933e-05
8.25023e-05
8.02114e-05
7.8745e-05
7.56963e-05
6.77182e-05
5.43026e-05
4.15995e-05
3.00041e-05
2.16554e-05
1.73597e-05
1.58882e-05
1.69873e-05
2.17707e-05
3.35388e-05
4.92952e-05
3.04759e-05
8.01014e-06
1.25015e-06
7.42663e-07
7.16982e-06
2.31544e-05
5.19474e-05
6.93897e-05
7.68016e-05
8.06637e-05
8.33125e-05
8.57133e-05
8.81726e-05
9.05854e-05
9.25854e-05
9.37243e-05
9.36719e-05
9.23728e-05
8.995e-05
8.66829e-05
8.34301e-05
8.11357e-05
7.97764e-05
7.71805e-05
6.99477e-05
5.63415e-05
4.08393e-05
2.8828e-05
2.13854e-05
1.75731e-05
1.65148e-05
1.81302e-05
2.36731e-05
3.58675e-05
4.99161e-05
2.88323e-05
7.82002e-06
1.17761e-06
7.36431e-07
7.17025e-06
2.32817e-05
5.19764e-05
6.88506e-05
7.58071e-05
7.93415e-05
8.18283e-05
8.42288e-05
8.67951e-05
8.93635e-05
9.15383e-05
9.28655e-05
9.29721e-05
9.16582e-05
8.90301e-05
8.55974e-05
8.22783e-05
7.9982e-05
7.87576e-05
7.65708e-05
7.04399e-05
5.84985e-05
4.32231e-05
3.01293e-05
2.18955e-05
1.78083e-05
1.67909e-05
1.85226e-05
2.40964e-05
3.6206e-05
5.01368e-05
2.89461e-05
7.82572e-06
1.16407e-06
7.2632e-07
7.13183e-06
2.33055e-05
5.20164e-05
6.83015e-05
7.47696e-05
7.79849e-05
8.0352e-05
8.28185e-05
8.55917e-05
8.84408e-05
9.08977e-05
9.24601e-05
9.27316e-05
9.14912e-05
8.8799e-05
8.51846e-05
8.17091e-05
7.93456e-05
7.81986e-05
7.65041e-05
7.10384e-05
6.1532e-05
4.77461e-05
3.38121e-05
2.38997e-05
1.86449e-05
1.70892e-05
1.86265e-05
2.42446e-05
3.65744e-05
5.03921e-05
2.95847e-05
7.89906e-06
1.18247e-06
7.18433e-07
7.08716e-06
2.32562e-05
5.18265e-05
6.7643e-05
7.37713e-05
7.67764e-05
7.90899e-05
8.16607e-05
8.46821e-05
8.78893e-05
9.07599e-05
9.2727e-05
9.33128e-05
9.22255e-05
8.95047e-05
8.56972e-05
8.1928e-05
7.93236e-05
7.80445e-05
7.62319e-05
7.08254e-05
6.29104e-05
5.0729e-05
3.75234e-05
2.72204e-05
2.05075e-05
1.79027e-05
1.90603e-05
2.41247e-05
3.50791e-05
4.99043e-05
3.03229e-05
7.94696e-06
1.23537e-06
7.14222e-07
7.06927e-06
2.32858e-05
5.15702e-05
6.67405e-05
7.25407e-05
7.54429e-05
7.78259e-05
8.05979e-05
8.39147e-05
8.74881e-05
9.07788e-05
9.31957e-05
9.42021e-05
9.3415e-05
9.07863e-05
8.68349e-05
8.27613e-05
7.98546e-05
7.84139e-05
7.66521e-05
7.12033e-05
6.28015e-05
5.0803e-05
3.85628e-05
2.92813e-05
2.26007e-05
1.90621e-05
1.91049e-05
2.39365e-05
3.66201e-05
5.15469e-05
2.9362e-05
7.92309e-06
1.24255e-06
7.05266e-07
7.04036e-06
2.32852e-05
5.13236e-05
6.57851e-05
7.11735e-05
7.39398e-05
7.64137e-05
7.94211e-05
8.30262e-05
8.68812e-05
9.04277e-05
9.30794e-05
9.4289e-05
9.36394e-05
9.10421e-05
8.69643e-05
8.25604e-05
7.91488e-05
7.72317e-05
7.54331e-05
7.05205e-05
6.15021e-05
4.95748e-05
3.80726e-05
2.92056e-05
2.3134e-05
2.0041e-05
2.04839e-05
2.61209e-05
3.9586e-05
5.23204e-05
2.884e-05
7.87054e-06
1.21319e-06
6.9567e-07
7.00412e-06
2.32846e-05
5.11778e-05
6.48309e-05
6.96329e-05
7.21245e-05
7.46483e-05
7.79306e-05
8.19249e-05
8.61917e-05
9.01142e-05
9.30692e-05
9.44647e-05
9.38369e-05
9.10856e-05
8.66658e-05
8.17087e-05
7.75517e-05
7.484e-05
7.27252e-05
6.84784e-05
6.01617e-05
4.92014e-05
3.8284e-05
2.95102e-05
2.38001e-05
2.11034e-05
2.17474e-05
2.72686e-05
4.00416e-05
5.25989e-05
2.89377e-05
7.86933e-06
1.19695e-06
6.89961e-07
6.97103e-06
2.32765e-05
5.08971e-05
6.36523e-05
6.78842e-05
7.01361e-05
7.27392e-05
7.63039e-05
8.06944e-05
8.54106e-05
8.98037e-05
9.32145e-05
9.49841e-05
9.45576e-05
9.17639e-05
8.70303e-05
8.15122e-05
7.64853e-05
7.26155e-05
6.9681e-05
6.66953e-05
6.00265e-05
5.01527e-05
4.0033e-05
3.10688e-05
2.48302e-05
2.18999e-05
2.24587e-05
2.78748e-05
4.05502e-05
5.30088e-05
2.93258e-05
7.9309e-06
1.20573e-06
6.88971e-07
6.96954e-06
2.33965e-05
5.06378e-05
6.23532e-05
6.59998e-05
6.81275e-05
7.09226e-05
7.48755e-05
7.9746e-05
8.49794e-05
8.99151e-05
9.38802e-05
9.61602e-05
9.60985e-05
9.34337e-05
8.85467e-05
8.26474e-05
7.71222e-05
7.24562e-05
6.80625e-05
6.52365e-05
5.96041e-05
5.10925e-05
4.29241e-05
3.44539e-05
2.71205e-05
2.30448e-05
2.31565e-05
2.825e-05
3.97671e-05
5.29933e-05
3.14115e-05
8.13577e-06
1.28492e-06
6.91137e-07
7.00295e-06
2.36107e-05
5.03527e-05
6.09447e-05
6.39639e-05
6.59169e-05
6.89006e-05
7.32908e-05
7.87231e-05
8.45612e-05
9.01266e-05
9.47507e-05
9.76877e-05
9.81739e-05
9.57522e-05
9.06941e-05
8.42596e-05
7.80134e-05
7.24588e-05
6.69248e-05
6.32337e-05
5.76642e-05
5.03845e-05
4.3787e-05
3.64678e-05
2.96755e-05
2.50184e-05
2.39511e-05
2.81772e-05
4.06709e-05
5.48352e-05
3.0237e-05
8.09607e-06
1.3025e-06
6.91799e-07
7.03819e-06
2.38087e-05
5.00065e-05
5.94618e-05
6.16742e-05
6.32392e-05
6.63083e-05
7.11375e-05
7.72013e-05
8.3732e-05
9.00023e-05
9.53455e-05
9.90036e-05
0.000100129
9.80467e-05
9.28313e-05
8.56669e-05
7.8369e-05
7.17356e-05
6.57316e-05
5.96334e-05
5.32339e-05
4.75168e-05
4.19063e-05
3.57487e-05
2.99409e-05
2.61013e-05
2.59999e-05
3.19169e-05
4.58725e-05
5.58777e-05
2.99356e-05
8.0566e-06
1.28815e-06
6.89575e-07
7.02947e-06
2.38284e-05
4.99176e-05
5.76839e-05
5.89456e-05
6.00445e-05
6.3095e-05
6.83271e-05
7.49867e-05
8.2151e-05
8.90356e-05
9.49861e-05
9.92607e-05
0.000100964
9.9217e-05
9.38886e-05
8.61476e-05
7.81485e-05
7.10042e-05
6.35193e-05
5.59128e-05
4.94916e-05
4.41241e-05
3.92568e-05
3.44521e-05
3.02357e-05
2.77094e-05
2.88428e-05
3.60459e-05
4.98309e-05
5.63655e-05
2.8545e-05
7.98091e-06
1.21272e-06
6.82084e-07
7.00036e-06
2.37395e-05
4.9694e-05
5.61597e-05
5.56834e-05
5.61791e-05
5.92786e-05
6.50484e-05
7.24472e-05
8.03166e-05
8.77887e-05
9.42565e-05
9.90505e-05
0.00010124
9.98103e-05
9.44139e-05
8.61821e-05
7.73858e-05
6.98763e-05
6.21589e-05
5.42686e-05
4.74699e-05
4.17052e-05
3.70372e-05
3.33886e-05
3.05794e-05
2.94291e-05
3.14402e-05
3.89094e-05
5.16512e-05
5.69069e-05
2.88082e-05
8.01494e-06
1.18943e-06
6.79784e-07
6.99055e-06
2.38096e-05
4.97668e-05
5.56088e-05
5.32049e-05
5.19668e-05
5.4912e-05
6.10721e-05
6.93893e-05
7.82237e-05
8.64632e-05
9.35069e-05
9.88173e-05
0.000101508
0.000100516
9.52242e-05
8.6616e-05
7.71666e-05
6.91712e-05
6.21923e-05
5.49847e-05
4.7887e-05
4.15583e-05
3.64714e-05
3.28645e-05
3.07235e-05
3.02846e-05
3.27451e-05
4.00155e-05
5.20882e-05
5.73718e-05
2.91237e-05
8.04241e-06
1.19129e-06
6.8478e-07
6.97252e-06
2.38205e-05
4.98207e-05
5.44023e-05
5.13096e-05
4.88102e-05
5.0549e-05
5.69792e-05
6.61983e-05
7.62143e-05
8.55048e-05
9.33706e-05
9.93816e-05
0.000102759
0.000102324
9.72496e-05
8.82393e-05
7.78446e-05
6.92605e-05
6.3856e-05
5.72034e-05
4.94951e-05
4.3215e-05
3.78198e-05
3.36952e-05
3.1142e-05
3.07279e-05
3.34872e-05
4.09109e-05
5.22888e-05
5.80584e-05
3.11626e-05
8.3315e-06
1.26923e-06
7.00997e-07
6.97782e-06
2.38456e-05
4.94973e-05
5.33935e-05
4.90951e-05
4.56848e-05
4.69995e-05
5.34753e-05
6.32732e-05
7.45626e-05
8.5222e-05
9.42318e-05
0.000101184
0.000105445
0.000105862
0.000101284
9.19011e-05
8.02246e-05
7.01609e-05
6.46351e-05
5.80912e-05
5.07489e-05
4.54761e-05
4.04474e-05
3.57887e-05
3.24559e-05
3.12099e-05
3.30114e-05
3.91385e-05
5.06315e-05
5.89093e-05
3.17451e-05
8.40318e-06
1.34848e-06
7.18712e-07
7.02741e-06
2.40293e-05
4.95176e-05
5.31e-05
4.81206e-05
4.39011e-05
4.37145e-05
4.91952e-05
5.98191e-05
7.23248e-05
8.45477e-05
9.49272e-05
0.000102954
0.000108131
0.000109429
0.000105498
9.58659e-05
8.2849e-05
7.20733e-05
6.36333e-05
5.56753e-05
4.97579e-05
4.54785e-05
4.11726e-05
3.67436e-05
3.31664e-05
3.17199e-05
3.38121e-05
4.13858e-05
5.45566e-05
6.00568e-05
3.07506e-05
8.41502e-06
1.35635e-06
7.31171e-07
7.06665e-06
2.41972e-05
4.93383e-05
5.29585e-05
4.79762e-05
4.26642e-05
4.13302e-05
4.53262e-05
5.50819e-05
6.85055e-05
8.2218e-05
9.40043e-05
0.000103094
0.000109132
0.000111234
0.000108099
9.91814e-05
8.58867e-05
7.1754e-05
6.00464e-05
5.21064e-05
4.71167e-05
4.34214e-05
3.99797e-05
3.64772e-05
3.37116e-05
3.31892e-05
3.66638e-05
4.57666e-05
5.81409e-05
6.03152e-05
3.03289e-05
8.32803e-06
1.3186e-06
7.32617e-07
7.06356e-06
2.41284e-05
4.93091e-05
5.30534e-05
4.81002e-05
4.23885e-05
3.99756e-05
4.19083e-05
4.94743e-05
6.28047e-05
7.78332e-05
9.1431e-05
0.000101916
0.00010881
0.000111551
0.000108998
0.000100506
8.77836e-05
7.19002e-05
5.79643e-05
4.90407e-05
4.38951e-05
4.09579e-05
3.87077e-05
3.64645e-05
3.47841e-05
3.51625e-05
3.95306e-05
4.91988e-05
6.05677e-05
6.02224e-05
2.94142e-05
8.29128e-06
1.26e-06
7.27318e-07
7.07083e-06
2.39465e-05
4.8898e-05
5.35869e-05
4.9177e-05
4.3126e-05
3.90848e-05
3.96124e-05
4.47007e-05
5.53254e-05
7.09889e-05
8.65828e-05
9.92061e-05
0.000107613
0.000111323
0.000109678
0.000102368
9.0812e-05
7.42514e-05
5.85329e-05
4.79397e-05
4.16152e-05
3.84221e-05
3.6958e-05
3.6156e-05
3.58095e-05
3.70568e-05
4.16415e-05
5.09392e-05
6.11999e-05
6.02698e-05
2.93714e-05
8.31311e-06
1.23966e-06
7.092e-07
7.0108e-06
2.34647e-05
4.81993e-05
5.40571e-05
5.05684e-05
4.45812e-05
3.96554e-05
3.7813e-05
4.07996e-05
4.85766e-05
6.17116e-05
7.89386e-05
9.43375e-05
0.000105239
0.000110689
0.000110333
0.000104193
9.37401e-05
7.79832e-05
6.17498e-05
4.95542e-05
4.15706e-05
3.7171e-05
3.52559e-05
3.48306e-05
3.56271e-05
3.80361e-05
4.31848e-05
5.19498e-05
6.18344e-05
6.10176e-05
2.97376e-05
8.36307e-06
1.24051e-06
6.87509e-07
6.97632e-06
2.31436e-05
4.78833e-05
5.48617e-05
5.26741e-05
4.73609e-05
4.17683e-05
3.79751e-05
3.78116e-05
4.28885e-05
5.30796e-05
6.82732e-05
8.63752e-05
0.000100877
0.000109148
0.000110703
0.000106147
9.6561e-05
8.22644e-05
6.6449e-05
5.28436e-05
4.30283e-05
3.70816e-05
3.43286e-05
3.38117e-05
3.47146e-05
3.7502e-05
4.33907e-05
5.26082e-05
6.21899e-05
6.13534e-05
3.03558e-05
8.51677e-06
1.26399e-06
6.64367e-07
6.90034e-06
2.25923e-05
4.71644e-05
5.54366e-05
5.44592e-05
5.00793e-05
4.46905e-05
3.99052e-05
3.73257e-05
3.85536e-05
4.54598e-05
5.79841e-05
7.5143e-05
9.34324e-05
0.000105895
0.000110561
0.000108049
0.000100167
8.74048e-05
7.20584e-05
5.75791e-05
4.62291e-05
3.86629e-05
3.45576e-05
3.31013e-05
3.36696e-05
3.63423e-05
4.20249e-05
5.13795e-05
6.12251e-05
6.15689e-05
3.15177e-05