/*--------------------------------*- C++ -*----------------------------------*\
| =========                 |                                                 |
| \\      /  F ield         | OpenFOAM: The Open Source CFD Toolbox           |
|  \\    /   O peration     | Version:  2.0.x                                 |
|   \\  /    A nd           | Web:      www.OpenFOAM.org                      |
|    \\/     M anipulation  |                                                 |
\*---------------------------------------------------------------------------*/
FoamFile
{
    version     2.0;
    format      ascii;
    class       volScalarField;
    location    "900";
    object      alphat;
}
// * * * * * * * * * * * * * * * * * * * * * * * * * * * * * * * * * * * * * //

dimensions      [1 -1 -1 0 0 0 0];

internalField   nonuniform List<scalar> 
78750
(
1.57113e-08
1.96256e-05
2.28986e-05
2.2551e-05
2.26884e-05
2.29374e-05
2.29566e-05
2.28992e-05
2.28899e-05
2.30824e-05
2.34375e-05
2.3606e-05
2.48114e-05
2.63244e-05
2.64971e-05
2.70635e-05
2.7693e-05
2.90761e-05
2.81276e-05
2.91678e-05
3.18129e-05
3.11064e-05
3.13673e-05
3.14253e-05
3.11955e-05
3.0557e-05
3.03746e-05
3.013e-05
2.91432e-05
2.8095e-05
2.69351e-05
2.49868e-05
2.15699e-05
1.59441e-05
5.72919e-08
1.14599e-08
6.59682e-06
8.33626e-06
1.18643e-05
1.70362e-05
2.27971e-05
2.86195e-05
3.3829e-05
3.77899e-05
4.11148e-05
4.533e-05
4.9989e-05
5.18203e-05
5.27876e-05
5.73719e-05
6.19294e-05
6.63658e-05
7.08133e-05
7.56086e-05
7.92756e-05
7.99272e-05
7.82274e-05
7.63054e-05
7.34996e-05
6.96511e-05
5.8198e-05
5.58676e-05
5.38283e-05
4.53197e-05
4.0613e-05
3.57246e-05
2.95661e-05
2.26465e-05
1.94194e-05
1.83327e-07
1.62703e-08
4.32806e-06
8.66497e-06
1.55542e-05
2.63489e-05
3.98781e-05
5.17448e-05
6.03103e-05
6.65407e-05
6.91931e-05
6.8949e-05
6.5117e-05
6.6176e-05
6.89323e-05
6.8031e-05
6.68176e-05
6.62226e-05
6.6749e-05
6.71348e-05
6.43101e-05
5.7479e-05
6.96036e-05
8.83578e-05
7.7112e-05
7.38684e-05
7.30689e-05
7.34796e-05
6.3527e-05
5.28396e-05
4.71601e-05
3.93091e-05
3.00262e-05
2.51624e-05
2.63438e-05
3.02969e-07
4.93661e-08
5.09864e-06
1.28558e-05
2.84856e-05
5.07165e-05
6.58587e-05
7.28558e-05
7.54223e-05
7.57565e-05
7.42485e-05
7.11897e-05
6.60179e-05
5.99574e-05
5.62536e-05
5.44035e-05
5.19606e-05
4.94422e-05
4.7178e-05
4.70018e-05
4.96103e-05
5.54288e-05
7.16691e-05
7.83775e-05
6.49796e-05
5.79763e-05
5.2767e-05
4.81858e-05
4.40517e-05
4.02127e-05
3.59522e-05
2.98826e-05
2.4798e-05
2.60689e-05
2.21568e-05
3.35906e-07
8.02528e-08
5.89136e-06
1.55075e-05
3.31463e-05
5.33954e-05
6.63334e-05
7.23576e-05
7.39648e-05
7.21981e-05
6.83094e-05
6.32444e-05
5.74482e-05
5.12406e-05
4.5646e-05
4.13244e-05
3.86663e-05
3.75713e-05
3.7659e-05
3.83735e-05
4.00126e-05
4.76922e-05
5.95218e-05
5.7295e-05
5.09562e-05
4.68524e-05
4.26472e-05
3.86319e-05
3.51319e-05
3.17738e-05
2.74902e-05
2.2651e-05
2.02635e-05
2.49187e-05
1.76699e-05
3.37899e-07
9.39754e-08
5.80047e-06
1.54978e-05
3.48117e-05
5.74664e-05
6.92812e-05
7.28624e-05
7.22518e-05
6.90908e-05
6.47182e-05
5.99172e-05
5.51698e-05
5.07844e-05
4.67131e-05
4.29064e-05
3.94914e-05
3.66716e-05
3.4577e-05
3.3123e-05
3.31437e-05
3.74993e-05
4.85402e-05
5.39306e-05
5.10088e-05
4.91226e-05
4.44077e-05
3.87208e-05
3.31463e-05
2.76075e-05
2.24236e-05
1.83956e-05
1.73827e-05
2.3696e-05
1.47843e-05
3.46617e-07
1.0916e-07
5.79755e-06
1.55285e-05
3.46173e-05
5.67891e-05
6.88027e-05
7.30843e-05
7.32972e-05
7.05957e-05
6.62326e-05
6.0957e-05
5.53039e-05
4.98697e-05
4.50472e-05
4.0991e-05
3.77175e-05
3.50439e-05
3.30375e-05
3.13102e-05
2.99763e-05
3.07998e-05
3.93228e-05
4.97821e-05
4.93522e-05
5.04025e-05
4.7783e-05
4.18294e-05
3.45859e-05
2.73338e-05
2.08158e-05
1.63162e-05
1.5578e-05
2.25701e-05
1.3242e-05
3.69394e-07
1.26043e-07
5.70338e-06
1.54675e-05
3.51196e-05
5.81202e-05
6.98817e-05
7.37168e-05
7.35733e-05
7.05446e-05
6.59823e-05
6.08498e-05
5.5578e-05
5.06796e-05
4.63271e-05
4.24749e-05
3.90217e-05
3.60242e-05
3.32706e-05
3.07778e-05
2.8631e-05
2.75454e-05
3.37693e-05
4.38099e-05
4.56427e-05
5.01224e-05
5.05722e-05
4.54853e-05
3.70172e-05
2.78843e-05
2.02037e-05
1.53345e-05
1.47051e-05
2.22794e-05
1.2053e-05
3.97501e-07
1.58201e-07
5.89219e-06
1.60884e-05
3.6038e-05
5.86457e-05
7.05474e-05
7.46903e-05
7.44418e-05
7.12469e-05
6.6322e-05
6.0653e-05
5.4838e-05
4.95068e-05
4.49541e-05
4.11878e-05
3.80708e-05
3.54192e-05
3.2792e-05
2.98212e-05
2.62516e-05
2.71223e-05
3.3212e-05
3.68057e-05
4.09097e-05
4.82267e-05
5.11771e-05
4.74393e-05
3.87958e-05
2.85789e-05
1.9841e-05
1.46738e-05
1.42772e-05
2.27534e-05
1.10225e-05
4.18697e-07
1.94643e-07
6.25546e-06
1.73464e-05
3.82598e-05
6.02654e-05
7.19376e-05
7.5806e-05
7.47215e-05
7.05798e-05
6.51832e-05
5.95654e-05
5.42823e-05
4.96103e-05
4.554e-05
4.19057e-05
3.8557e-05
3.54136e-05
3.23807e-05
2.94174e-05
2.68896e-05
2.58674e-05
2.90054e-05
3.40906e-05
3.80806e-05
4.39443e-05
4.70767e-05
4.49087e-05
3.74978e-05
2.7756e-05
1.92366e-05
1.42159e-05
1.41905e-05
2.41608e-05
9.9973e-06
4.21428e-07
2.16039e-07
6.54497e-06
1.81111e-05
3.89466e-05
6.00342e-05
7.14437e-05
7.57166e-05
7.53301e-05
7.17774e-05
6.61146e-05
6.01421e-05
5.5008e-05
5.06514e-05
4.67453e-05
4.30628e-05
3.94813e-05
3.59864e-05
3.25866e-05
2.94355e-05
2.69843e-05
2.60418e-05
2.7223e-05
3.01876e-05
3.43458e-05
3.94617e-05
4.29138e-05
4.1167e-05
3.47486e-05
2.61468e-05
1.84371e-05
1.39007e-05
1.43423e-05
2.58395e-05
9.30222e-06
4.17079e-07
2.16416e-07
6.57525e-06
1.81423e-05
3.92609e-05
6.0438e-05
7.11359e-05
7.4447e-05
7.36297e-05
7.05238e-05
6.66034e-05
6.24261e-05
5.80141e-05
5.35571e-05
4.92797e-05
4.53055e-05
4.1622e-05
3.81529e-05
3.48226e-05
3.16052e-05
2.87054e-05
2.66001e-05
2.62943e-05
2.74309e-05
2.98987e-05
3.41982e-05
3.72162e-05
3.664e-05
3.1747e-05
2.45314e-05
1.7811e-05
1.38624e-05
1.48194e-05
2.73746e-05
8.88466e-06
4.15577e-07
1.97156e-07
6.42491e-06
1.74795e-05
3.78122e-05
5.93067e-05
7.05313e-05
7.47513e-05
7.51696e-05
7.31178e-05
6.94631e-05
6.49235e-05
6.00372e-05
5.51224e-05
5.05172e-05
4.63975e-05
4.27668e-05
3.95703e-05
3.67315e-05
3.39213e-05
3.09651e-05
2.80355e-05
2.5827e-05
2.68618e-05
2.85051e-05
2.8998e-05
3.15056e-05
3.19561e-05
2.86246e-05
2.27897e-05
1.71325e-05
1.38691e-05
1.53501e-05
2.85645e-05
8.59094e-06
4.21727e-07
1.8496e-07
6.3426e-06
1.70644e-05
3.66016e-05
5.77062e-05
7.02906e-05
7.58288e-05
7.69021e-05
7.51459e-05
7.17132e-05
6.76644e-05
6.32472e-05
5.81914e-05
5.334e-05
4.93904e-05
4.56367e-05
4.16503e-05
3.83905e-05
3.5746e-05
3.26847e-05
2.92495e-05
2.60766e-05
2.66493e-05
2.76997e-05
2.65926e-05
2.76928e-05
2.81565e-05
2.60746e-05
2.12992e-05
1.64644e-05
1.38816e-05
1.59609e-05
2.94318e-05
8.48804e-06
4.42273e-07
1.84152e-07
6.21388e-06
1.64676e-05
3.53441e-05
5.74047e-05
7.14246e-05
7.78876e-05
7.98414e-05
7.85061e-05
7.47539e-05
6.87961e-05
6.19012e-05
5.70362e-05
5.46477e-05
5.29497e-05
5.15402e-05
4.96657e-05
4.53631e-05
4.016e-05
3.58891e-05
3.18568e-05
2.78557e-05
2.46651e-05
2.58322e-05
2.68048e-05
2.50786e-05
2.53638e-05
2.37857e-05
2.00482e-05
1.58909e-05
1.37409e-05
1.62283e-05
2.99025e-05
8.47019e-06
4.72333e-07
1.97742e-07
6.17283e-06
1.6507e-05
3.63301e-05
5.96413e-05
7.35e-05
7.94083e-05
8.07239e-05
7.83555e-05
7.33625e-05
6.641e-05
6.10763e-05
5.82725e-05
5.61709e-05
5.46637e-05
5.36117e-05
5.28654e-05
5.13516e-05
4.70306e-05
4.11869e-05
3.54484e-05
2.96325e-05
2.49156e-05
2.54464e-05
2.60205e-05
2.34015e-05
2.27519e-05
2.13367e-05
1.86063e-05
1.53648e-05
1.3817e-05
1.6927e-05
3.10253e-05
8.33922e-06
4.96993e-07
2.24645e-07
6.23324e-06
1.6978e-05
3.81264e-05
6.17102e-05
7.43676e-05
7.91143e-05
7.91077e-05
7.48025e-05
6.80919e-05
6.35275e-05
6.07428e-05
5.82885e-05
5.6983e-05
5.64509e-05
5.60256e-05
5.52701e-05
5.4496e-05
5.33266e-05
4.91261e-05
4.17615e-05
3.3739e-05
2.73104e-05
2.59994e-05
2.42512e-05
2.10828e-05
2.06424e-05
1.98178e-05
1.75131e-05
1.48108e-05
1.37356e-05
1.73689e-05
3.18381e-05
8.23914e-06
5.15781e-07
2.57506e-07
6.35431e-06
1.75953e-05
4.01029e-05
6.36693e-05
7.47625e-05
7.77633e-05
7.49987e-05
6.9979e-05
6.58933e-05
6.17595e-05
5.79311e-05
5.62619e-05
5.6969e-05
5.91409e-05
6.11923e-05
6.17529e-05
6.03564e-05
5.77828e-05
5.32898e-05
4.64203e-05
3.83367e-05
3.07155e-05
2.74753e-05
2.47764e-05
2.06244e-05
1.87975e-05
1.79377e-05
1.61969e-05
1.4142e-05
1.36345e-05
1.79441e-05
3.27699e-05
8.07636e-06
5.28162e-07
2.99117e-07
6.60593e-06
1.87897e-05
4.32754e-05
6.62292e-05
7.52203e-05
7.58664e-05
7.32926e-05
6.98508e-05
6.46797e-05
5.9173e-05
5.59279e-05
5.54742e-05
5.7446e-05
6.0977e-05
6.48589e-05
6.73946e-05
6.74673e-05
6.49589e-05
6.09235e-05
5.44876e-05
4.52303e-05
3.56881e-05
2.77715e-05
2.39565e-05
2.05588e-05
1.7535e-05
1.63559e-05
1.49697e-05
1.35131e-05
1.36228e-05
1.87407e-05
3.34736e-05
7.91484e-06
5.28604e-07
3.30149e-07
6.81393e-06
1.99181e-05
4.55596e-05
6.69472e-05
7.48974e-05
7.57674e-05
7.31071e-05
6.80602e-05
6.27296e-05
5.89358e-05
5.68093e-05
5.63595e-05
5.76371e-05
6.04547e-05
6.37919e-05
6.68956e-05
6.86884e-05
6.75314e-05
6.34582e-05
5.84156e-05
5.12763e-05
4.11849e-05
3.15613e-05
2.57428e-05
2.07206e-05
1.68333e-05
1.50326e-05
1.37748e-05
1.28432e-05
1.34583e-05
1.92504e-05
3.3691e-05
7.76296e-06
5.25416e-07
3.41582e-07
6.8936e-06
2.01131e-05
4.57068e-05
6.65766e-05
7.42524e-05
7.49384e-05
7.17935e-05
6.75708e-05
6.44735e-05
6.18809e-05
5.96948e-05
5.80758e-05
5.7468e-05
5.81647e-05
6.04317e-05
6.34713e-05
6.53324e-05
6.55864e-05
6.38355e-05
5.99876e-05
5.44677e-05
4.61524e-05
3.61304e-05
2.82752e-05
2.1436e-05
1.66017e-05
1.43094e-05
1.29719e-05
1.22867e-05
1.33576e-05
1.9859e-05
3.37598e-05
7.646e-06
5.22488e-07
3.41535e-07
6.88227e-06
2.0031e-05
4.53688e-05
6.56706e-05
7.27055e-05
7.36762e-05
7.21992e-05
7.04312e-05
6.79632e-05
6.54606e-05
6.29902e-05
6.06009e-05
5.84327e-05
5.68729e-05
5.64643e-05
5.75176e-05
5.95105e-05
6.09728e-05
6.07016e-05
5.92655e-05
5.56152e-05
4.84892e-05
3.91466e-05
3.08439e-05
2.33424e-05
1.72213e-05
1.38408e-05
1.22912e-05
1.18064e-05
1.32914e-05
2.05065e-05
3.36223e-05
7.56298e-06
5.21099e-07
3.30029e-07
6.75388e-06
1.9698e-05
4.40861e-05
6.38834e-05
7.16962e-05
7.36775e-05
7.35349e-05
7.17704e-05
6.96267e-05
6.73423e-05
6.5033e-05
6.26727e-05
6.02591e-05
5.7875e-05
5.57355e-05
5.41999e-05
5.36658e-05
5.41596e-05
5.51507e-05
5.51465e-05
5.31632e-05
4.81481e-05
3.98133e-05
3.18825e-05
2.45993e-05
1.78275e-05
1.3735e-05
1.19161e-05
1.15271e-05
1.33755e-05
2.12852e-05
3.33946e-05
7.51829e-06
5.22064e-07
3.16178e-07
6.68754e-06
1.90967e-05
4.22724e-05
6.24386e-05
7.12142e-05
7.39342e-05
7.37024e-05
7.22742e-05
7.03098e-05
6.81155e-05
6.58724e-05
6.36327e-05
6.13627e-05
5.89894e-05
5.64911e-05
5.39949e-05
5.17872e-05
5.0272e-05
4.96717e-05
4.96204e-05
4.87517e-05
4.5035e-05
3.84685e-05
3.23801e-05
2.54858e-05
1.83263e-05
1.38396e-05
1.17222e-05
1.13422e-05
1.3428e-05
2.18402e-05
3.32705e-05
7.50812e-06
5.26122e-07
3.0648e-07
6.59785e-06
1.86601e-05
4.13569e-05
6.21614e-05
7.14461e-05
7.48519e-05
7.53331e-05
7.43264e-05
7.26092e-05
7.04893e-05
6.81229e-05
6.56547e-05
6.31491e-05
6.06001e-05
5.79518e-05
5.51492e-05
5.22703e-05
4.95835e-05
4.74863e-05
4.6052e-05
4.45805e-05
4.17655e-05
3.69243e-05
3.2843e-05
2.61795e-05
1.86114e-05
1.40615e-05
1.17511e-05
1.1263e-05
1.34383e-05
2.21584e-05
3.33866e-05
7.53719e-06
5.36122e-07
3.02878e-07
6.54135e-06
1.84522e-05
4.10478e-05
6.19576e-05
7.21264e-05
7.64949e-05
7.7762e-05
7.73227e-05
7.59625e-05
7.40516e-05
7.17407e-05
6.91351e-05
6.63379e-05
6.34155e-05
6.03903e-05
5.72303e-05
5.39021e-05
5.04986e-05
4.72837e-05
4.44338e-05
4.17523e-05
3.86852e-05
3.50516e-05
3.26045e-05
2.64878e-05
1.90632e-05
1.43665e-05
1.1744e-05
1.11911e-05
1.35114e-05
2.26063e-05
3.33987e-05
7.56093e-06
5.45289e-07
2.99818e-07
6.46586e-06
1.81586e-05
4.00746e-05
6.08011e-05
7.19086e-05
7.69903e-05
7.88743e-05
7.89553e-05
7.80478e-05
7.65716e-05
7.46958e-05
7.24805e-05
6.99608e-05
6.71056e-05
6.39162e-05
6.04228e-05
5.66689e-05
5.27071e-05
4.86418e-05
4.46427e-05
4.07072e-05
3.67142e-05
3.29618e-05
3.12554e-05
2.62107e-05
1.92238e-05
1.46306e-05
1.19054e-05
1.12528e-05
1.35909e-05
2.28486e-05
3.36493e-05
7.61132e-06
5.56743e-07
2.97744e-07
6.39414e-06
1.76932e-05
3.89078e-05
6.03801e-05
7.18123e-05
7.69937e-05
7.90077e-05
7.92332e-05
7.85549e-05
7.73943e-05
7.59712e-05
7.43518e-05
7.25106e-05
7.0312e-05
6.75986e-05
6.42861e-05
6.041e-05
5.60587e-05
5.13447e-05
4.64415e-05
4.1431e-05
3.63578e-05
3.17362e-05
2.97325e-05
2.59235e-05
1.93409e-05
1.4718e-05
1.20415e-05
1.13123e-05
1.36234e-05
2.30006e-05
3.39893e-05
7.66575e-06
5.70673e-07
3.00632e-07
6.34519e-06
1.76466e-05
3.91281e-05
6.06556e-05
7.2333e-05
7.77023e-05
7.97576e-05
7.98936e-05
7.91818e-05
7.81106e-05
7.68364e-05
7.55482e-05
7.42608e-05
7.27994e-05
7.08658e-05
6.81812e-05
6.45541e-05
6.00684e-05
5.49531e-05
4.92826e-05
4.32387e-05
3.70497e-05
3.13508e-05
2.85523e-05
2.54698e-05
1.91154e-05
1.44738e-05
1.20646e-05
1.14305e-05
1.3857e-05
2.35819e-05
3.40886e-05
7.69146e-06
5.80287e-07
3.09704e-07
6.37619e-06
1.78396e-05
3.96008e-05
6.11912e-05
7.29617e-05
7.84746e-05
8.06425e-05
8.07376e-05
7.97983e-05
7.85839e-05
7.76029e-05
7.66336e-05
7.56205e-05
7.45571e-05
7.32593e-05
7.1493e-05
6.88808e-05
6.49493e-05
5.95185e-05
5.29335e-05
4.59188e-05
3.90724e-05
3.29027e-05
2.73144e-05
2.40248e-05
1.89759e-05
1.41882e-05
1.1995e-05
1.15635e-05
1.41957e-05
2.43466e-05
3.40988e-05
7.70149e-06
5.8497e-07
3.20899e-07
6.41223e-06
1.80572e-05
4.03174e-05
6.19144e-05
7.34311e-05
7.88482e-05
8.09497e-05
8.1014e-05
8.0345e-05
7.94612e-05
7.84639e-05
7.74964e-05
7.65905e-05
7.57139e-05
7.4719e-05
7.33319e-05
7.11685e-05
6.78329e-05
6.31589e-05
5.72018e-05
4.98006e-05
4.177e-05
3.42714e-05
2.74076e-05
2.34648e-05
1.85295e-05
1.39369e-05
1.19067e-05
1.1683e-05
1.45769e-05
2.52337e-05
3.40058e-05
7.69637e-06
5.85517e-07
3.31114e-07
6.4336e-06
1.82469e-05
4.09219e-05
6.23924e-05
7.35327e-05
7.86941e-05
8.06409e-05
8.08959e-05
8.04642e-05
7.97386e-05
7.87977e-05
7.78539e-05
7.70726e-05
7.64749e-05
7.59271e-05
7.50522e-05
7.34541e-05
7.0666e-05
6.64024e-05
6.04862e-05
5.30578e-05
4.47027e-05
3.61022e-05
2.81696e-05
2.34614e-05
1.82168e-05
1.3719e-05
1.18444e-05
1.18315e-05
1.50051e-05
2.61318e-05
3.39626e-05
7.70335e-06
5.85766e-07
3.42138e-07
6.49814e-06
1.85464e-05
4.1664e-05
6.30095e-05
7.37883e-05
7.86249e-05
8.04302e-05
8.09489e-05
8.05299e-05
7.96066e-05
7.87186e-05
7.8025e-05
7.75709e-05
7.7306e-05
7.70724e-05
7.65179e-05
7.5219e-05
7.27311e-05
6.90473e-05
6.41385e-05
5.72672e-05
4.82689e-05
3.84287e-05
2.9486e-05
2.4162e-05
1.84794e-05
1.37784e-05
1.1871e-05
1.19203e-05
1.52125e-05
2.65826e-05
3.42668e-05
7.72804e-06
5.90434e-07
3.5519e-07
6.56007e-06
1.88989e-05
4.25914e-05
6.36543e-05
7.39402e-05
7.85206e-05
8.04861e-05
8.08055e-05
8.02419e-05
7.95692e-05
7.90415e-05
7.87021e-05
7.85457e-05
7.85092e-05
7.84354e-05
7.79784e-05
7.66883e-05
7.41474e-05
7.06406e-05
6.64735e-05
6.06348e-05
5.21988e-05
4.17338e-05
3.14413e-05
2.50778e-05
1.87902e-05
1.38662e-05
1.18722e-05
1.19756e-05
1.54913e-05
2.74261e-05
3.41645e-05
7.70481e-06
5.91556e-07
3.66408e-07
6.61701e-06
1.92131e-05
4.33757e-05
6.41414e-05
7.37749e-05
7.81533e-05
7.96833e-05
7.98359e-05
7.95319e-05
7.92462e-05
7.91206e-05
7.91326e-05
7.92235e-05
7.93076e-05
7.92343e-05
7.86789e-05
7.72084e-05
7.44586e-05
7.08909e-05
6.70411e-05
6.18879e-05
5.42774e-05
4.43844e-05
3.37441e-05
2.60327e-05
1.89e-05
1.38885e-05
1.1947e-05
1.22136e-05
1.60932e-05
2.88009e-05
3.36938e-05
7.68909e-06
5.87598e-07
3.74297e-07
6.66498e-06
1.94792e-05
4.40787e-05
6.43861e-05
7.36351e-05
7.74446e-05
7.85509e-05
7.86783e-05
7.86055e-05
7.86895e-05
7.8988e-05
7.93983e-05
7.97957e-05
8.00441e-05
7.99719e-05
7.92767e-05
7.75734e-05
7.45798e-05
7.08666e-05
6.70828e-05
6.22581e-05
5.52389e-05
4.60221e-05
3.55529e-05
2.70199e-05
1.91896e-05
1.40118e-05
1.20263e-05
1.24157e-05
1.66492e-05
3.01127e-05
3.31679e-05
7.62608e-06
5.76781e-07
3.79376e-07
6.68932e-06
1.96484e-05
4.46106e-05
6.46531e-05
7.33374e-05
7.66825e-05
7.75422e-05
7.75654e-05
7.75817e-05
7.80023e-05
7.87377e-05
7.96037e-05
8.03892e-05
8.08813e-05
8.08558e-05
8.00086e-05
7.79997e-05
7.46532e-05
7.06428e-05
6.66566e-05
6.17969e-05
5.51046e-05
4.66763e-05
3.68899e-05
2.81881e-05
1.98125e-05
1.42264e-05
1.21571e-05
1.26657e-05
1.72446e-05
3.13664e-05
3.30257e-05
7.6212e-06
5.72354e-07
3.83457e-07
6.70255e-06
1.97729e-05
4.4959e-05
6.4772e-05
7.29203e-05
7.58184e-05
7.63826e-05
7.63468e-05
7.64764e-05
7.71461e-05
7.83504e-05
7.97613e-05
8.10777e-05
8.19982e-05
8.22242e-05
8.14213e-05
7.92402e-05
7.55689e-05
7.1208e-05
6.69427e-05
6.19071e-05
5.51177e-05
4.70607e-05
3.95446e-05
3.04438e-05
2.07391e-05
1.46719e-05
1.2311e-05
1.28357e-05
1.7587e-05
3.20163e-05
3.31407e-05
7.64121e-06
5.75677e-07
3.89036e-07
6.72045e-06
1.99279e-05
4.54312e-05
6.48424e-05
7.24295e-05
7.48624e-05
7.49895e-05
7.47643e-05
7.5013e-05
7.60304e-05
7.77448e-05
7.98546e-05
8.18592e-05
8.33786e-05
8.40382e-05
8.34704e-05
8.12599e-05
7.73446e-05
7.26511e-05
6.80991e-05
6.29176e-05
5.62009e-05
4.82623e-05
4.14675e-05
3.19732e-05
2.20639e-05
1.57372e-05
1.27242e-05
1.29337e-05
1.7793e-05
3.28065e-05
3.29261e-05
7.63431e-06
5.84191e-07
3.95392e-07
6.73819e-06
2.00416e-05
4.57534e-05
6.48051e-05
7.17568e-05
7.35911e-05
7.32707e-05
7.29067e-05
7.33134e-05
7.47793e-05
7.70991e-05
7.98973e-05
8.27173e-05
8.49919e-05
8.62543e-05
8.60561e-05
8.39423e-05
7.98388e-05
7.48108e-05
6.99864e-05
6.47205e-05
5.78804e-05
4.90567e-05
4.10834e-05
3.11787e-05
2.20529e-05
1.6311e-05
1.33267e-05
1.35137e-05
1.88755e-05
3.51525e-05
3.1758e-05
7.574e-06
5.79438e-07
4.01065e-07
6.7578e-06
2.01821e-05
4.6118e-05
6.46856e-05
7.09793e-05
7.21243e-05
7.1423e-05
7.08398e-05
7.13145e-05
7.31335e-05
7.60332e-05
7.94746e-05
8.29698e-05
8.59475e-05
8.77791e-05
8.79272e-05
8.58925e-05
8.15687e-05
7.60888e-05
7.07081e-05
6.49411e-05
5.78997e-05
4.90904e-05
4.01268e-05
3.00927e-05
2.15738e-05
1.63548e-05
1.38748e-05
1.4456e-05
2.03656e-05
3.68047e-05
3.15579e-05
7.53513e-06
5.69783e-07
4.06048e-07
6.76921e-06
2.03078e-05
4.64011e-05
6.44109e-05
7.00105e-05
7.05787e-05
6.94746e-05
6.86109e-05
6.90628e-05
7.11312e-05
7.45299e-05
7.86594e-05
8.28121e-05
8.63893e-05
8.87962e-05
8.92773e-05
8.73271e-05
8.28029e-05
7.69392e-05
7.11472e-05
6.50127e-05
5.77458e-05
4.92512e-05
4.14355e-05
3.14917e-05
2.2282e-05
1.67108e-05
1.41907e-05
1.48515e-05
2.08145e-05
3.72773e-05
3.2231e-05
7.61417e-06
5.76e-07
4.11605e-07
6.77913e-06
2.03966e-05
4.65824e-05
6.39939e-05
6.91206e-05
6.91448e-05
6.75529e-05
6.6419e-05
6.68432e-05
6.91227e-05
7.29779e-05
7.77977e-05
8.28149e-05
8.72286e-05
9.03072e-05
9.13965e-05
8.97301e-05
8.51337e-05
7.88838e-05
7.26168e-05
6.59765e-05
5.82782e-05
4.98886e-05
4.37686e-05
3.44676e-05
2.44634e-05
1.80526e-05
1.47216e-05
1.48551e-05
2.05031e-05
3.74137e-05
3.2184e-05
7.62715e-06
5.97605e-07
4.18309e-07
6.80247e-06
2.05361e-05
4.66442e-05
6.36682e-05
6.8292e-05
6.77588e-05
6.57752e-05
6.44023e-05
6.47392e-05
6.71189e-05
7.13174e-05
7.67502e-05
8.26183e-05
8.80313e-05
9.20904e-05
9.39055e-05
9.27303e-05
8.82088e-05
8.15971e-05
7.48674e-05
6.77762e-05
5.93139e-05
4.97215e-05
4.23693e-05
3.33667e-05
2.45589e-05
1.87242e-05
1.55299e-05
1.59503e-05
2.2956e-05
4.16653e-05
3.08242e-05
7.5963e-06
5.97509e-07
4.1927e-07
6.80963e-06
2.04816e-05
4.65814e-05
6.32752e-05
6.72598e-05
6.63578e-05
6.40387e-05
6.23557e-05
6.24361e-05
6.46699e-05
6.89261e-05
7.46953e-05
8.11757e-05
8.73916e-05
9.23081e-05
9.48924e-05
9.42163e-05
8.98356e-05
8.28813e-05
7.56917e-05
6.83006e-05
5.93457e-05
4.85321e-05
3.84788e-05
2.99653e-05
2.33881e-05
1.88704e-05
1.66001e-05
1.7886e-05
2.63111e-05
4.47022e-05
2.95316e-05
7.42357e-06
5.61258e-07
4.17357e-07
6.78812e-06
2.04937e-05
4.65169e-05
6.26441e-05
6.63155e-05
6.50584e-05
6.24016e-05
6.03741e-05
6.00622e-05
6.18932e-05
6.58654e-05
7.16134e-05
7.84049e-05
8.52212e-05
9.08969e-05
9.42153e-05
9.40757e-05
9.0098e-05
8.29927e-05
7.56194e-05
6.84963e-05
5.99506e-05
4.9021e-05
3.75936e-05
2.84746e-05
2.23606e-05
1.87039e-05
1.72547e-05
1.91943e-05
2.80698e-05
4.60652e-05
2.93925e-05
7.43078e-06
5.46905e-07
4.13829e-07
6.75046e-06
2.04372e-05
4.64201e-05
6.21728e-05
6.543e-05
6.39021e-05
6.10403e-05
5.87241e-05
5.79727e-05
5.92434e-05
6.26848e-05
6.81232e-05
7.49695e-05
8.22216e-05
8.8614e-05
9.27627e-05
9.33163e-05
8.94576e-05
8.21105e-05
7.42998e-05
6.72939e-05
6.04048e-05
5.19975e-05
4.0531e-05
2.97621e-05
2.27532e-05
1.8841e-05
1.74849e-05
1.95443e-05
2.84196e-05
4.63747e-05
2.98973e-05
7.46519e-06
5.50718e-07
4.1308e-07
6.72947e-06
2.04562e-05
4.63972e-05
6.16732e-05
6.46587e-05
6.30159e-05
6.00722e-05
5.75052e-05
5.62717e-05
5.69335e-05
5.97737e-05
6.46971e-05
7.13344e-05
7.88612e-05
8.59159e-05
9.09267e-05
9.23317e-05
8.90235e-05
8.15398e-05
7.32984e-05
6.62093e-05
6.04699e-05
5.64611e-05
4.68782e-05
3.4181e-05
2.46608e-05
1.92854e-05
1.75507e-05
1.9569e-05
2.80553e-05
4.51727e-05
3.29531e-05
7.79358e-06
6.00839e-07
4.18948e-07
6.74194e-06
2.05889e-05
4.63562e-05
6.12206e-05
6.40729e-05
6.25148e-05
5.96578e-05
5.70818e-05
5.55391e-05
5.54393e-05
5.72627e-05
6.15143e-05
6.79624e-05
7.56863e-05
8.34562e-05
8.95265e-05
9.19727e-05
8.92723e-05
8.17649e-05
7.29063e-05
6.50394e-05
5.93761e-05
5.85343e-05
5.14612e-05
3.91121e-05
2.91269e-05
2.16562e-05
1.83779e-05
1.92107e-05
2.59302e-05
4.37206e-05
3.41817e-05
7.94486e-06
6.57202e-07
4.30577e-07
6.80095e-06
2.08721e-05
4.63543e-05
6.08533e-05
6.3707e-05
6.23682e-05
5.9673e-05
5.70813e-05
5.52442e-05
5.45731e-05
5.55838e-05
5.89189e-05
6.46889e-05
7.23806e-05
8.07672e-05
8.79916e-05
9.16873e-05
8.96542e-05
8.16749e-05
7.14243e-05
6.28861e-05
6.11408e-05
5.67004e-05
4.745e-05
3.9449e-05
3.11197e-05
2.38229e-05
1.94836e-05
2.01e-05
2.92765e-05
4.94105e-05
3.17016e-05
7.86732e-06
6.63507e-07
4.42393e-07
6.88259e-06
2.1005e-05
4.65541e-05
6.0476e-05
6.35385e-05
6.25748e-05
6.01552e-05
5.75975e-05
5.54871e-05
5.42328e-05
5.42901e-05
5.64754e-05
6.13298e-05
6.85229e-05
7.71654e-05
8.53664e-05
9.04329e-05
8.9565e-05
8.20189e-05
7.12419e-05
6.0903e-05
5.4786e-05
4.81638e-05
4.13364e-05
3.56912e-05
2.95104e-05
2.42127e-05
2.17996e-05
2.49077e-05
3.77689e-05
5.3126e-05
3.02131e-05
7.71423e-06
6.33126e-07
4.44794e-07
6.91363e-06
2.12384e-05
4.63851e-05
6.01324e-05
6.34019e-05
6.27564e-05
6.06283e-05
5.81619e-05
5.5933e-05
5.42236e-05
5.33978e-05
5.41523e-05
5.7546e-05
6.37126e-05
7.18162e-05
8.03481e-05
8.63432e-05
8.63129e-05
7.86918e-05
6.70583e-05
5.59972e-05
4.62959e-05
3.96186e-05
3.56973e-05
3.22839e-05
2.85317e-05
2.55535e-05
2.56222e-05
3.14581e-05
4.6062e-05
5.56549e-05
2.74093e-05
7.50603e-06
5.55729e-07
4.39199e-07
6.91358e-06
2.11589e-05
4.61243e-05
5.98244e-05
6.32718e-05
6.28844e-05
6.10302e-05
5.87796e-05
5.65457e-05
5.45094e-05
5.3019e-05
5.24059e-05
5.36306e-05
5.8001e-05
6.51014e-05
7.30256e-05
7.93443e-05
8.04074e-05
7.39205e-05
6.23289e-05
5.21395e-05
4.07649e-05
3.33959e-05
3.09073e-05
2.94378e-05
2.79185e-05
2.72273e-05
2.92728e-05
3.70377e-05
5.18251e-05
5.58963e-05
2.60287e-05
7.2551e-06
4.98062e-07
4.22321e-07
6.84889e-06
2.08987e-05
4.5686e-05
5.95801e-05
6.32285e-05
6.30657e-05
6.14663e-05
5.9429e-05
5.73043e-05
5.51698e-05
5.33109e-05
5.17439e-05
5.10377e-05
5.27593e-05
5.7822e-05
6.51591e-05
7.18564e-05
7.47837e-05
7.11733e-05
6.18895e-05
5.24407e-05
3.93937e-05
3.10031e-05
2.85914e-05
2.77175e-05
2.73679e-05
2.78668e-05
3.12153e-05
4.00931e-05
5.35179e-05
5.57969e-05
2.64134e-05
7.32433e-06
4.77639e-07
3.99347e-07
6.73701e-06
2.05311e-05
4.52919e-05
5.94514e-05
6.3209e-05
6.31948e-05
6.18588e-05
6.01238e-05
5.81361e-05
5.61873e-05
5.40731e-05
5.1504e-05
4.97823e-05
4.9745e-05
5.189e-05
5.68014e-05
6.32148e-05
6.77267e-05
6.78298e-05
6.54128e-05
5.48822e-05
4.12108e-05
3.20249e-05
2.69832e-05
2.52632e-05
2.55093e-05
2.72235e-05
3.11792e-05
3.9301e-05
5.10794e-05
5.65381e-05
2.77208e-05
7.41702e-06
4.78485e-07
3.76221e-07
6.59641e-06
2.01131e-05
4.4919e-05
5.93827e-05
6.32466e-05
6.34145e-05
6.22197e-05
6.09765e-05
5.96551e-05
5.72286e-05
5.40846e-05
5.13108e-05
4.91946e-05
4.83491e-05
4.93552e-05
5.21391e-05
5.5963e-05
5.99129e-05
6.28833e-05
6.34921e-05
5.98627e-05
5.0499e-05
3.94069e-05
3.09838e-05
2.59569e-05
2.4024e-05
2.4439e-05
2.72649e-05
3.34929e-05
4.55131e-05
5.58076e-05
3.02692e-05
7.78592e-06
5.29371e-07
3.67642e-07
6.52061e-06
2.01469e-05
4.49447e-05
5.94306e-05
6.34389e-05
6.38542e-05
6.32174e-05
6.20843e-05
6.06405e-05
5.89259e-05
5.64795e-05
5.32931e-05
5.00372e-05
4.75407e-05
4.66769e-05
4.81474e-05
5.15971e-05
5.54914e-05
5.83112e-05
6.06835e-05
6.51093e-05
6.23877e-05
5.05612e-05
3.9671e-05
3.13491e-05
2.61776e-05
2.36254e-05
2.38637e-05
2.86165e-05
3.97754e-05
5.24149e-05
3.71153e-05
8.55659e-06
6.48618e-07
3.6773e-07
6.4981e-06
2.02393e-05
4.514e-05
5.95182e-05
6.37449e-05
6.45687e-05
6.43659e-05
6.36953e-05
6.26217e-05
6.10502e-05
5.87665e-05
5.56961e-05
5.20903e-05
4.87262e-05
4.65049e-05
4.61061e-05
4.78118e-05
5.08024e-05
5.30851e-05
5.82529e-05
6.59983e-05
6.47029e-05
5.82505e-05
5.08172e-05
4.01932e-05
3.05622e-05
2.47968e-05
2.30495e-05
2.51727e-05
3.1827e-05
4.74271e-05
3.9993e-05
8.81927e-06
7.60338e-07
3.86468e-07
6.60101e-06
2.07344e-05
4.53113e-05
5.96776e-05
6.41913e-05
6.53327e-05
6.52183e-05
6.495e-05
6.46947e-05
6.40592e-05
6.26173e-05
5.98728e-05
5.57174e-05
5.11619e-05
4.75071e-05
4.55557e-05
4.58781e-05
4.75408e-05
4.93507e-05
5.38125e-05
6.23776e-05
6.19513e-05
5.55684e-05
5.18163e-05
4.57961e-05
3.62731e-05
2.7231e-05
2.24102e-05
2.33751e-05
3.40563e-05
5.56589e-05
3.57141e-05
8.67872e-06
7.75668e-07
4.05378e-07
6.72396e-06
2.10654e-05
4.6108e-05
5.98121e-05
6.45302e-05
6.61917e-05
6.67109e-05
6.68042e-05
6.66101e-05
6.59977e-05
6.46197e-05
6.22715e-05
5.88695e-05
5.4447e-05
4.94669e-05
4.52856e-05
4.31571e-05
4.37695e-05
4.62498e-05
4.82158e-05
5.15543e-05
5.15748e-05
4.82802e-05
4.54486e-05
4.03018e-05
3.34309e-05
2.77066e-05
2.61658e-05
3.17515e-05
4.70837e-05
5.87432e-05
3.26558e-05
8.37034e-06
7.14231e-07
4.10922e-07
6.83516e-06
2.15356e-05
4.62429e-05
5.99068e-05
6.48298e-05
6.66736e-05
6.73736e-05
6.77266e-05
6.79526e-05
6.78023e-05
6.69012e-05
6.5066e-05
6.16453e-05
5.64216e-05
5.03686e-05
4.46838e-05
4.02802e-05
3.89491e-05
4.14907e-05
4.23481e-05
4.1129e-05
4.11668e-05
4.10663e-05
3.98767e-05
3.7086e-05
3.33937e-05
3.09507e-05
3.26293e-05
4.07642e-05
5.56526e-05
5.91692e-05
2.79025e-05
7.94656e-06
5.76182e-07
4.08536e-07
6.86888e-06
2.16579e-05
4.65328e-05
6.00697e-05
6.48889e-05
6.65995e-05
6.71879e-05
6.75203e-05
6.7856e-05
6.8019e-05
6.7571e-05
6.57519e-05
6.21984e-05
5.70531e-05
5.09585e-05
4.47785e-05
3.9767e-05
3.68995e-05
3.7946e-05
3.61247e-05
3.35605e-05
3.49149e-05
3.61319e-05
3.61115e-05
3.53319e-05
3.41283e-05
3.41865e-05
3.77545e-05
4.80179e-05
6.11048e-05
5.79133e-05
2.61511e-05
7.57592e-06
4.98725e-07
3.88095e-07
6.78168e-06
2.13423e-05
4.63336e-05
6.01373e-05
6.48214e-05
6.62742e-05
6.66811e-05
6.70059e-05
6.74937e-05
6.80163e-05
6.80626e-05
6.70282e-05
6.44883e-05
6.01086e-05
5.41598e-05
4.74017e-05
4.09931e-05
3.64093e-05
3.66992e-05
3.45498e-05
3.15075e-05
3.19451e-05
3.23715e-05
3.27096e-05
3.28264e-05
3.30766e-05
3.49391e-05
4.07309e-05
5.10117e-05
6.06904e-05
5.77533e-05
2.72433e-05
7.71288e-06
4.84237e-07
3.6704e-07
6.67308e-06
2.10551e-05
4.63805e-05
6.04039e-05
6.48096e-05
6.58938e-05
6.60236e-05
6.62496e-05
6.68198e-05
6.75552e-05
6.80138e-05
6.76029e-05
6.57841e-05
6.23765e-05
5.73692e-05
5.11516e-05
4.45612e-05
3.86908e-05
3.64133e-05
3.40648e-05
3.17962e-05
3.20539e-05
3.18989e-05
3.12192e-05
3.08738e-05
3.1633e-05
3.39531e-05
3.89656e-05
4.76442e-05
5.75094e-05
5.9342e-05
2.83854e-05
7.80403e-06
4.92348e-07
3.47561e-07
6.52628e-06
2.06707e-05
4.62791e-05
6.05667e-05
6.4778e-05
6.56179e-05
6.56052e-05
6.5854e-05
6.66104e-05
6.77116e-05
6.86851e-05
6.89141e-05
6.78342e-05
6.51807e-05
6.10183e-05
5.57016e-05
4.96851e-05
4.37626e-05
3.94041e-05
3.62889e-05
3.42281e-05
3.29821e-05
3.19541e-05
3.11253e-05
3.05855e-05
3.06039e-05
3.17365e-05
3.49427e-05
4.12661e-05
5.25116e-05
5.95181e-05
3.26772e-05
8.34206e-06
5.71949e-07
3.4002e-07
6.45757e-06
2.07053e-05
4.66103e-05
6.07905e-05
6.47926e-05
6.54394e-05
6.53598e-05
6.56759e-05
6.66392e-05
6.81116e-05
6.96227e-05
7.05535e-05
7.02462e-05
6.82392e-05
6.45947e-05
5.97656e-05
5.41842e-05
4.86394e-05
4.45133e-05
4.37816e-05
4.1346e-05
3.67128e-05
3.43115e-05
3.24465e-05
3.07053e-05
2.93783e-05
2.89653e-05
3.03573e-05
3.63564e-05
4.79178e-05
5.80398e-05
3.81749e-05
8.98803e-06
6.67402e-07
3.38924e-07
6.43115e-06
2.06972e-05
4.69323e-05
6.09525e-05
6.47464e-05
6.52828e-05
6.52383e-05
6.57031e-05
6.69641e-05
6.88416e-05
7.09045e-05
7.25276e-05
7.29657e-05
7.1536e-05
6.8147e-05
6.34468e-05
5.7699e-05
5.17163e-05
4.75367e-05
4.84759e-05
4.7289e-05
4.21916e-05
3.89221e-05
3.54926e-05
3.21674e-05
2.95138e-05
2.77565e-05
2.83611e-05
3.25046e-05
4.16281e-05
5.65419e-05
4.09122e-05
9.26112e-06
7.38021e-07
3.46526e-07
6.46088e-06
2.10599e-05
4.7406e-05
6.10641e-05
6.46373e-05
6.50781e-05
6.50385e-05
6.56075e-05
6.7103e-05
6.94194e-05
7.20315e-05
7.42829e-05
7.54434e-05
7.48214e-05
7.1821e-05
6.65205e-05
6.0265e-05
5.40526e-05
4.93595e-05
5.01025e-05
4.90064e-05
4.4773e-05
4.29621e-05
4.01512e-05
3.5459e-05
3.04402e-05
2.71598e-05
2.60642e-05
2.88408e-05
3.99596e-05
5.94261e-05
3.7932e-05
9.12518e-06
7.50798e-07
3.54726e-07
6.51581e-06
2.13864e-05
4.79684e-05
6.10693e-05
6.43979e-05
6.47172e-05
6.464e-05
6.52896e-05
6.70128e-05
6.9671e-05
7.27697e-05
7.56136e-05
7.73956e-05
7.73456e-05
7.48944e-05
7.00059e-05
6.32315e-05
5.59819e-05
5.022e-05
4.87023e-05
4.65773e-05
4.35913e-05
4.25988e-05
4.04339e-05
3.6342e-05
3.09532e-05
2.66511e-05
2.59341e-05
3.12894e-05
4.62242e-05
6.20558e-05
3.56864e-05
8.96053e-06
7.29435e-07
3.58981e-07
6.5801e-06
2.16973e-05
4.83395e-05
6.09609e-05
6.39628e-05
6.40479e-05
6.38287e-05
6.44698e-05
6.63026e-05
6.91607e-05
7.26215e-05
7.5944e-05
7.82756e-05
7.87842e-05
7.67698e-05
7.19473e-05
6.49544e-05
5.71265e-05
5.02673e-05
4.58949e-05
4.28542e-05
4.09171e-05
3.98902e-05
3.80606e-05
3.48435e-05
3.0919e-05
2.81142e-05
2.88232e-05
3.60149e-05
5.16445e-05
6.25559e-05
3.27788e-05
8.72318e-06
6.67092e-07