/*--------------------------------*- C++ -*----------------------------------*\
| =========                 |                                                 |
| \\      /  F ield         | OpenFOAM: The Open Source CFD Toolbox           |
|  \\    /   O peration     | Version:  2.0.x                                 |
|   \\  /    A nd           | Web:      www.OpenFOAM.org                      |
|    \\/     M anipulation  |                                                 |
\*---------------------------------------------------------------------------*/
FoamFile
{
    version     2.0;
    format      ascii;
    class       volScalarField;
    location    "900";
    object      k;
}
// * * * * * * * * * * * * * * * * * * * * * * * * * * * * * * * * * * * * * //

dimensions      [0 2 -2 0 0 0 0];

internalField   nonuniform List<scalar> 
78750
(
1.3157e-05
0.000142454
0.000221679
0.000286822
0.000343183
0.000391419
0.000432192
0.000466326
0.000494736
0.000518028
0.000536247
0.00055063
0.000561653
0.000569613
0.000575749
0.000586176
0.000593155
0.00059696
0.00059624
0.000592577
0.00058716
0.000580103
0.000571125
0.000562039
0.000552751
0.00054307
0.000532897
0.000522069
0.000510292
0.000497199
0.000482163
0.000462442
0.000427246
0.000335973
5.35829e-05
9.59269e-06
0.000123556
0.000233474
0.000345601
0.000449794
0.000538494
0.000610984
0.000668884
0.000714515
0.000749543
0.000775207
0.000793039
0.000804476
0.000811848
0.000810958
0.000798883
0.000783003
0.000766956
0.000751002
0.000735455
0.000720495
0.00070608
0.000691456
0.000675233
0.000657922
0.000639283
0.000618538
0.00059713
0.000574748
0.000550611
0.000524318
0.000492732
0.000443181
0.000349033
0.000171719
1.36218e-05
0.000193039
0.000379161
0.000541002
0.000666657
0.000755547
0.000816224
0.000856643
0.000882132
0.000895321
0.000897536
0.000893554
0.000878835
0.000856186
0.000830798
0.000803896
0.000775049
0.000745311
0.000716349
0.000689708
0.000665558
0.000643836
0.000627704
0.000615666
0.000605718
0.000596916
0.000588154
0.000577984
0.000564824
0.000547025
0.000522943
0.000490905
0.000439672
0.000368489
0.000284477
4.13531e-05
0.000308246
0.000542469
0.000702422
0.000796814
0.000853085
0.000889214
0.000912128
0.000924334
0.000926852
0.000922017
0.000907587
0.00088577
0.000858101
0.000826459
0.000791172
0.000752768
0.000711858
0.000669664
0.000628581
0.000591944
0.000565889
0.000548423
0.000535871
0.000527008
0.000521879
0.000519507
0.000518274
0.000516198
0.000510947
0.000499178
0.00047236
0.000429667
0.000376978
0.000316249
6.7248e-05
0.000369969
0.000597638
0.000743893
0.00083535
0.000897017
0.000940862
0.000971053
0.000989024
0.000995315
0.000990775
0.000974941
0.000949065
0.000914644
0.000873797
0.000828158
0.000779485
0.000729223
0.00067851
0.000628981
0.000585392
0.000552397
0.000527386
0.000507082
0.000490994
0.000479631
0.000473255
0.000471247
0.000471659
0.000471479
0.000466426
0.000448356
0.00041654
0.000374718
0.000318763
7.8755e-05
0.000388522
0.000629289
0.000785943
0.000880448
0.000941539
0.000983687
0.00101182
0.00102776
0.00103237
0.001027
0.00101087
0.000985743
0.0009533
0.000915877
0.00087526
0.000832888
0.000787954
0.00074024
0.000689393
0.000637802
0.000593291
0.000556869
0.000526041
0.000500385
0.000480653
0.00046582
0.000454885
0.00044806
0.000444905
0.000441257
0.000429528
0.000406784
0.000373711
0.000327429
9.14889e-05
0.000412304
0.000660374
0.000820647
0.000918247
0.000982226
0.00102694
0.00105726
0.00107486
0.00108037
0.00107515
0.00105766
0.00102948
0.000991999
0.000947491
0.000899494
0.000848595
0.00079935
0.00075262
0.000707691
0.000663717
0.000622564
0.000587601
0.000556542
0.000527795
0.000501491
0.000477746
0.000458802
0.000445585
0.000435111
0.000426653
0.000415844
0.000399096
0.000374626
0.000349279
0.000105649
0.000435232
0.000695186
0.000860667
0.000959368
0.00102278
0.00106609
0.00109428
0.00110904
0.00111091
0.00110216
0.00107998
0.00104701
0.00100484
0.000955537
0.000901305
0.000847873
0.000797856
0.00075
0.000705455
0.000664237
0.000627706
0.000597463
0.000571026
0.000546506
0.000523001
0.000499436
0.000475056
0.000452335
0.000435613
0.000423307
0.000411877
0.000398365
0.000380871
0.000376155
0.000132641
0.000478465
0.000741224
0.000903818
0.00100028
0.00106238
0.00110452
0.0011313
0.00114417
0.00114347
0.00113019
0.00110305
0.00106402
0.00101481
0.000958079
0.000897421
0.00083672
0.000776019
0.000719464
0.000669444
0.000629304
0.000601815
0.000581499
0.000563984
0.000548288
0.000533479
0.000516645
0.00049593
0.000471013
0.00044457
0.000424649
0.000412394
0.00040064
0.000391055
0.000396501
0.000163251
0.00051661
0.000774121
0.000931693
0.00102579
0.00108704
0.00112865
0.00115489
0.00116701
0.00116521
0.00114955
0.00112101
0.00108058
0.00102976
0.000970578
0.00090578
0.000838533
0.000771892
0.000708807
0.000652738
0.000608338
0.000581037
0.000566355
0.000557675
0.000550387
0.000541794
0.000529901
0.000513093
0.000490147
0.000461704
0.000433663
0.000415481
0.000405664
0.000399008
0.000399328
0.00018124
0.000532196
0.000788909
0.000945551
0.0010406
0.00110383
0.001148
0.00117727
0.00119309
0.00119561
0.00118555
0.00116309
0.00112907
0.0010844
0.00103008
0.000967422
0.000898675
0.0008251
0.000750217
0.000680284
0.000623272
0.000586449
0.000571332
0.000565569
0.00056249
0.000557782
0.000548797
0.000533821
0.000511358
0.000481563
0.000449461
0.000424996
0.000413207
0.000405267
0.000395385
0.00018156
0.000534076
0.000790477
0.000951319
0.00104852
0.00111363
0.00116007
0.00119219
0.00121157
0.00121823
0.00121419
0.00119948
0.00117483
0.0011408
0.00109791
0.00104669
0.000987931
0.000922119
0.000849268
0.000772004
0.000696639
0.000633024
0.000590405
0.000568665
0.000561406
0.000558392
0.000553725
0.000544851
0.000528421
0.000501502
0.000467698
0.000438321
0.000422139
0.000410463
0.00039409
0.000165374
0.000521049
0.000785229
0.000951797
0.00105412
0.00112329
0.00117336
0.00120908
0.00123245
0.00124414
0.00124497
0.00123534
0.00121597
0.00118775
0.00115161
0.00110835
0.00105872
0.00100374
0.000942849
0.000874972
0.00080071
0.000724251
0.000655711
0.000604886
0.00057318
0.000558277
0.000548722
0.00054082
0.000528695
0.00050993
0.000482358
0.000452889
0.000433356
0.000417611
0.000400029
0.000155119
0.00051584
0.000783365
0.000956021
0.00106305
0.00113495
0.00118656
0.00122359
0.00124842
0.00126218
0.00126531
0.00125856
0.00124241
0.00121801
0.00118636
0.00114821
0.0011039
0.00105406
0.000999965
0.000940676
0.00087526
0.00080363
0.000730634
0.00066571
0.000612677
0.000573839
0.000551701
0.000538834
0.000525995
0.000509534
0.00048884
0.000464079
0.000444876
0.000428119
0.00041964
0.000154439
0.000518363
0.000795667
0.000974603
0.0010846
0.00115747
0.00120942
0.00124657
0.00127129
0.0012847
0.00128745
0.00128081
0.00126431
0.00124089
0.00121208
0.00117839
0.00113977
0.00109563
0.00104572
0.000990347
0.000929757
0.000864121
0.000794128
0.000726259
0.000666885
0.000616466
0.00057704
0.000548106
0.000528634
0.000511867
0.000494791
0.000474712
0.000457609
0.00044342
0.000448288
0.000165854
0.000542229
0.000828653
0.00100788
0.00111511
0.00118519
0.00123463
0.00126924
0.00129114
0.00130141
0.00130085
0.00129165
0.00127445
0.00125289
0.00122744
0.00119741
0.00116191
0.00112066
0.00107365
0.00102021
0.00096002
0.000893634
0.000822429
0.000754258
0.000695941
0.000644896
0.000600897
0.00056572
0.000539344
0.00051979
0.000503316
0.000486227
0.000471591
0.000460469
0.000471866
0.000188476
0.0005766
0.000866464
0.00104193
0.00114557
0.00121335
0.00126094
0.00129345
0.00131272
0.00131975
0.00131644
0.00130418
0.00128762
0.0012694
0.00124952
0.00122597
0.00119619
0.00115837
0.00111284
0.0010603
0.00100008
0.000931538
0.000856228
0.000782765
0.000720147
0.000666576
0.000620327
0.000581838
0.000551291
0.000529173
0.000512761
0.000498093
0.000485952
0.000477481
0.000489833
0.000216113
0.00061102
0.000899409
0.00106944
0.00116901
0.00123438
0.00128015
0.00131059
0.00132703
0.00133034
0.00132361
0.00130864
0.0012918
0.00127794
0.00126558
0.0012509
0.00122982
0.00119785
0.00115295
0.0010973
0.00103354
0.000961234
0.000881857
0.000803141
0.000735683
0.000680301
0.000634148
0.00059545
0.000563609
0.000540321
0.000523815
0.000510844
0.000500853
0.000493992
0.000501729
0.000251132
0.000650265
0.000931554
0.00109381
0.00118962
0.00125379
0.00129926
0.00132921
0.00134443
0.00134588
0.00133599
0.00131815
0.0012998
0.0012825
0.00126652
0.0012529
0.00123742
0.00121706
0.00118909
0.00114751
0.00108849
0.00100991
0.000920939
0.000830622
0.000750027
0.00068764
0.000639821
0.000602134
0.00057195
0.000550227
0.000535189
0.000524147
0.000515552
0.000507664
0.000502258
0.000277269
0.000668347
0.000940588
0.00109992
0.00119592
0.00126184
0.00130942
0.00134121
0.00135796
0.00136004
0.00134908
0.00132909
0.00130651
0.00128487
0.00126606
0.00124944
0.00123458
0.00121495
0.00118947
0.00115434
0.00110734
0.00104892
0.000968887
0.00086994
0.000777967
0.000704456
0.000648954
0.000608532
0.000579114
0.000559581
0.000546616
0.000537206
0.000529006
0.000518493
0.000499299
0.000286904
0.000670261
0.000941497
0.00110098
0.00119927
0.00126896
0.00132006
0.00135577
0.00137668
0.00138271
0.0013754
0.00135594
0.0013271
0.00129448
0.00126252
0.00123469
0.00120914
0.00118758
0.00116864
0.00114337
0.00110677
0.00105571
0.000990205
0.000909229
0.000815176
0.000732866
0.000667206
0.000619385
0.000587347
0.000568965
0.000558288
0.000550526
0.000542228
0.000528313
0.000496577
0.000286864
0.000668846
0.000939936
0.00110039
0.00119933
0.00127129
0.00132548
0.00136505
0.00139066
0.00140205
0.00140096
0.00138754
0.0013625
0.00132704
0.00128435
0.00123994
0.00120153
0.00116782
0.00113501
0.00110514
0.00107614
0.00103905
0.000988464
0.000920918
0.000839766
0.00075864
0.000689594
0.00063543
0.000598642
0.000579325
0.000569907
0.000563105
0.000554016
0.000536326
0.000495316
0.000277163
0.000653666
0.000926678
0.00109283
0.00119719
0.00127175
0.00133101
0.00137535
0.00140599
0.00142358
0.00142807
0.00142111
0.00140308
0.00137441
0.00133539
0.00128697
0.00123197
0.00117625
0.0011265
0.00108468
0.00104289
0.00100098
0.000956693
0.000903895
0.000838464
0.000767898
0.000705175
0.000651367
0.000611845
0.000591252
0.000582408
0.000575969
0.000565739
0.000544452
0.000496309
0.000265491
0.000639597
0.000913072
0.00108308
0.00119176
0.00127105
0.00133316
0.00138141
0.00141677
0.00143941
0.00144893
0.00144679
0.00143351
0.00141004
0.00137718
0.0013355
0.0012854
0.00122776
0.00116519
0.00110191
0.00104165
0.000985805
0.000932359
0.000876853
0.000817904
0.000761162
0.000709342
0.00066232
0.000624556
0.000603695
0.000594953
0.000588198
0.000576429
0.000551811
0.000500228
0.000257322
0.000628915
0.000903165
0.00107652
0.00118815
0.00127009
0.00133592
0.00138808
0.00142771
0.00145512
0.00147025
0.00147323
0.00146466
0.00144501
0.00141506
0.00137591
0.00132873
0.00127464
0.00121473
0.00115097
0.0010842
0.00101632
0.000948936
0.000882336
0.0008192
0.000763445
0.000713906
0.000670795
0.000636233
0.000616471
0.000607878
0.000600624
0.000587601
0.000561102
0.000509808
0.000254286
0.000623027
0.000897332
0.0010732
0.00118772
0.00127313
0.00134093
0.00139539
0.00143795
0.00146897
0.00148829
0.00149597
0.00149232
0.00147755
0.00145189
0.00141592
0.00137062
0.00131727
0.00125738
0.00119302
0.00112556
0.00105544
0.000983295
0.000910186
0.000840296
0.00077848
0.000725366
0.000680935
0.000647395
0.000629034
0.000620841
0.00061298
0.000598782
0.000570659
0.00051861
0.000251706
0.000616735
0.000891265
0.00107016
0.00118852
0.00127611
0.00134639
0.00140373
0.00144953
0.00148412
0.00150729
0.00151888
0.00151899
0.00150811
0.00148609
0.00145357
0.00141124
0.00136
0.00130092
0.00123569
0.00116646
0.00109355
0.0010174
0.000939365
0.000864684
0.000798784
0.000741425
0.000693781
0.000659165
0.00064161
0.00063404
0.000625676
0.000610385
0.000581003
0.000529578
0.000249958
0.000610717
0.000886047
0.00106888
0.0011898
0.00127964
0.0013524
0.00141256
0.00146158
0.00149985
0.00152725
0.00154315
0.00154717
0.00153961
0.00152046
0.0014902
0.00144972
0.00140007
0.00134217
0.00127727
0.00120721
0.00113243
0.00105323
0.000971054
0.000891533
0.000821297
0.000760468
0.000709604
0.000672508
0.00065423
0.000646832
0.000638283
0.000622496
0.000592873
0.000542909
0.000252387
0.000610239
0.000885778
0.0010704
0.00119337
0.00128552
0.00136055
0.00142311
0.00147484
0.00151619
0.00154694
0.00156668
0.00157524
0.0015722
0.00155663
0.00152834
0.00148877
0.00144001
0.00138257
0.00131742
0.00124595
0.00116871
0.00108598
0.000999426
0.000914928
0.000840453
0.000776949
0.000724344
0.00068621
0.000667591
0.000660223
0.000651427
0.000635128
0.000604733
0.000552149
0.000260025
0.000616918
0.000892025
0.00107547
0.00119825
0.00129126
0.00136771
0.00143189
0.00148527
0.00152834
0.00156094
0.00158304
0.00159489
0.00159629
0.00158723
0.00156537
0.0015305
0.00148326
0.0014265
0.00136115
0.00128815
0.001208
0.00112115
0.00102992
0.000939137
0.000857589
0.0007901
0.000736079
0.000698078
0.000680187
0.000673281
0.000664393
0.000647545
0.000615623
0.000556685
0.000269456
0.00062532
0.00089908
0.00108128
0.00120374
0.00129732
0.00137473
0.00144017
0.00149512
0.00154011
0.00157533
0.00160061
0.00161627
0.00162221
0.00161806
0.00160253
0.00157447
0.00153295
0.00147785
0.00141154
0.0013367
0.00125362
0.00116244
0.0010651
0.000966221
0.000876155
0.000803062
0.000746695
0.00070901
0.000692356
0.000686217
0.000677282
0.000659674
0.000625262
0.000557273
0.00027806
0.00063165
0.00090415
0.00108515
0.00120731
0.00130155
0.00138013
0.00144699
0.00150354
0.00155037
0.00158787
0.00161605
0.00163537
0.00164577
0.00164674
0.00163811
0.00161732
0.00158361
0.00153559
0.00147251
0.00139532
0.00130708
0.00121046
0.00110618
0.000998302
0.000898295
0.000817342
0.000756661
0.000718684
0.000703605
0.000698614
0.000689647
0.000670972
0.000633396
0.000557564
0.000287347
0.000640989
0.000911778
0.00109004
0.00121096
0.00130517
0.00138434
0.00145214
0.00150977
0.00155781
0.00159628
0.00162506
0.00164477
0.00165598
0.00165883
0.00165328
0.00163781
0.00161159
0.00157308
0.00152076
0.00145351
0.00136982
0.0012693
0.00115684
0.00103955
0.000929318
0.000839108
0.000771251
0.000729845
0.000714626
0.000710466
0.000701604
0.000682141
0.000642437
0.000562049
0.000298349
0.000649921
0.000917915
0.00109315
0.00121271
0.0013067
0.00138685
0.00145591
0.00151463
0.00156342
0.00160229
0.00163131
0.00165121
0.00166276
0.00166636
0.00166223
0.00164931
0.00162697
0.00159386
0.00154865
0.00149044
0.00141716
0.00132607
0.00121499
0.00108743
0.000965679
0.00086554
0.000789647
0.00074304
0.000725946
0.000721983
0.000713296
0.000693212
0.000651205
0.000563168
0.000307808
0.000657026
0.000922326
0.00109482
0.0012129
0.00130677
0.00138696
0.00145659
0.00151706
0.00156736
0.00160762
0.00163772
0.0016582
0.00166981
0.00167309
0.00166858
0.00165571
0.00163422
0.00160309
0.00156122
0.00150781
0.00144074
0.00135742
0.00125506
0.0011329
0.0010023
0.000890329
0.000806815
0.000756765
0.000738435
0.000734005
0.000724802
0.000703667
0.000658329
0.000559452
0.000314461
0.000661823
0.000924624
0.00109482
0.00121272
0.00130663
0.00138704
0.00145695
0.00151828
0.00157081
0.00161344
0.00164581
0.00166821
0.00168115
0.00168511
0.00168063
0.00166751
0.00164578
0.00161483
0.00157389
0.00152241
0.00145813
0.00137857
0.00128111
0.00116453
0.00103613
0.000914653
0.000822807
0.00076918
0.000750073
0.000745596
0.000735756
0.000712873
0.000662267
0.000549176
0.000318747
0.000664745
0.00092529
0.00109333
0.00120912
0.00130244
0.00138371
0.00145542
0.00151755
0.00157099
0.00161626
0.00165125
0.00167618
0.0016913
0.0016969
0.00169338
0.00168067
0.00165897
0.00162799
0.00158741
0.00153685
0.00147427
0.00139717
0.00130295
0.00119055
0.00106609
0.000942697
0.000840656
0.000783083
0.000762413
0.000756938
0.000746039
0.000721333
0.000666194
0.000544992
0.000322193
0.000667113
0.000925364
0.00109074
0.00120505
0.00129746
0.00137842
0.00145075
0.00151505
0.00157066
0.00161737
0.00165547
0.00168359
0.00170191
0.00171045
0.00170932
0.0016986
0.00167826
0.00164822
0.00160854
0.00155917
0.00149877
0.00142533
0.00133609
0.00123051
0.00111251
0.000985871
0.00086821
0.000797714
0.000774486
0.000768371
0.00075617
0.00072949
0.00067101
0.00054818
0.0003269
0.00067032
0.000926021
0.00108854
0.00120093
0.00129223
0.00137271
0.00144523
0.00151048
0.00156804
0.00161661
0.00165638
0.00168807
0.00170956
0.00172108
0.00172261
0.00171455
0.00169608
0.00166743
0.00162875
0.00158008
0.00152106
0.00145106
0.0013689
0.00127477
0.00116983
0.00104995
0.000923674
0.000828251
0.000789099
0.000779509
0.000766745
0.00073931
0.000679487
0.00055634
0.000332263
0.000673756
0.000926314
0.00108566
0.00119584
0.00128568
0.00136544
0.00143802
0.00150412
0.00156342
0.00161495
0.00165737
0.00169107
0.00171631
0.0017315
0.00173643
0.0017312
0.00171527
0.00168852
0.00165075
0.00160148
0.00154046
0.00146801
0.00138448
0.00129185
0.00119324
0.00108435
0.000967374
0.000867038
0.000812685
0.000793386
0.000777194
0.000747937
0.000684245
0.000551888
0.000337053
0.000676926
0.000926289
0.00108234
0.00119014
0.00127825
0.00135683
0.00142879
0.00149503
0.00155539
0.00160898
0.00165443
0.00169049
0.00171819
0.00173699
0.00174537
0.00174352
0.00173112
0.00170782
0.00167325
0.00162601
0.00156487
0.00148899
0.00139858
0.0012973
0.00119305
0.00108551
0.000979431
0.000891537
0.000837284
0.000811143
0.000789607
0.000756197
0.000686294
0.000542717
0.00034126
0.000679085
0.000925275
0.00107765
0.00118288
0.00126907
0.00134616
0.00141714
0.00148308
0.00154403
0.0015992
0.00164731
0.00168722
0.00171751
0.00173872
0.00175133
0.00175295
0.00174458
0.00172536
0.00169574
0.00165448
0.0016006
0.00153092
0.00144209
0.00133711
0.00122124
0.00109914
0.000985797
0.000901876
0.000853208
0.00082621
0.000801352
0.000764757
0.000691092
0.000548664
0.00034595
0.000680658
0.000923363
0.00107265
0.00117545
0.00125956
0.00133482
0.00140439
0.00146953
0.00153051
0.0015867
0.0016369
0.00167987
0.0017143
0.00173885
0.00175308
0.00175821
0.00175241
0.00173552
0.00170796
0.00166911
0.00161899
0.00155842
0.00148666
0.00140071
0.00129979
0.00117783
0.0010459
0.000937727
0.000873957
0.000840881
0.000813635
0.000775971
0.000703379
0.000569323
0.000351609
0.000681481
0.000921101
0.0010671
0.00116721
0.00124896
0.00132218
0.00139
0.00145382
0.00151422
0.00157086
0.00162268
0.00166826
0.00170598
0.0017344
0.00175234
0.001759
0.00175533
0.00173953
0.00171157
0.00167131
0.0016201
0.0015604
0.00149395
0.0014203
0.00133595
0.00123165
0.00110635
0.00098894
0.000909144
0.000864634
0.000831208
0.000789045
0.00071115
0.000569308
0.000352424
0.000681434
0.000917496
0.00106062
0.0011581
0.00123758
0.00130858
0.00137413
0.00143586
0.00149478
0.00155107
0.001604
0.00165204
0.00169319
0.00172559
0.00174785
0.00175903
0.00175872
0.00174495
0.00171618
0.00167174
0.00161342
0.00154425
0.00146801
0.00139169
0.00131488
0.00122657
0.00112234
0.00101952
0.000940439
0.000888906
0.00084817
0.00079796
0.000707224
0.00053478
0.000350814
0.000678594
0.000912531
0.0010532
0.0011485
0.00122582
0.00129444
0.00135738
0.00141639
0.00147286
0.00152761
0.00158055
0.00163035
0.00167483
0.00171181
0.00173957
0.00175685
0.00176251
0.00175751
0.00173496
0.00169321
0.00163133
0.00155212
0.00146141
0.00136846
0.0012801
0.00119609
0.00111402
0.00103121
0.000960773
0.00090734
0.000862412
0.000807099
0.000707266
0.000521085
0.000347844
0.00067579
0.000907742
0.00104605
0.00113918
0.00121447
0.00128086
0.00134111
0.00139699
0.00145025
0.00150234
0.00155401
0.0016043
0.00165098
0.00169165
0.00172448
0.00174834
0.00176243
0.00176497
0.00175602
0.00172792
0.00167499
0.00159873
0.00150287
0.00139502
0.00128661
0.0011953
0.00111347
0.00103951
0.000977673
0.000925082
0.000877385
0.000817409
0.000708453
0.000524703
0.000347214
0.000674308
0.000902815
0.00103874
0.00113008
0.00120364
0.00126788
0.00132536
0.00137779
0.0014271
0.00147539
0.00152428
0.00157349
0.0016208
0.00166355
0.00169972
0.00172834
0.00174919
0.00176104
0.00176167
0.00174981
0.00172188
0.00166937
0.00159211
0.0014932
0.00137105
0.00123603
0.00112703
0.00105093
0.000993273
0.000941594
0.000891971
0.000831717
0.000728313
0.000572549
0.000352166
0.000673981
0.000898706
0.00103235
0.00112205
0.00119417
0.00125646
0.00131124
0.00136014
0.00140526
0.00144877
0.0014932
0.00153945
0.00158554
0.00162846
0.00166574
0.00169628
0.00172029
0.00173755
0.00174791
0.0017498
0.0017407
0.00171528
0.00167099
0.00160223
0.00149993
0.00136324
0.00121731
0.00110049
0.00102151
0.000963401
0.000911615
0.000852127
0.00075744
0.000626476
0.000361976
0.000674048
0.000894623
0.00102613
0.00111456
0.00118554
0.00124622
0.00129853
0.00134379
0.00138395
0.00142175
0.00146064
0.00150191
0.00154461
0.00158558
0.00162166
0.00165123
0.00167422
0.00169116
0.00170347
0.00171219
0.00171666
0.00171383
0.00169706
0.00165911
0.00158746
0.00147325
0.00132578
0.00118128
0.00107191
0.000995737
0.00093689
0.000873174
0.000777099
0.000632589
0.000371945
0.00067405
0.000889531
0.00101927
0.00110699
0.00117748
0.00123742
0.00128803
0.00133043
0.00136647
0.0013985
0.00143004
0.00146424
0.0015017
0.00153902
0.00157211
0.00159845
0.0016173
0.00162959
0.00163786
0.00164528
0.00165446
0.00166418
0.00166738
0.0016512
0.001597
0.00150446
0.001377
0.00123305
0.00111532
0.00103036
0.000963295
0.000889991
0.000776789
0.000603699
0.000373974
0.000667632
0.000881314
0.0010111
0.00109888
0.00116928
0.00122904
0.00127898
0.00131935
0.00135129
0.00137746
0.00140219
0.00142916
0.00146012
0.00149293
0.00152245
0.00154452
0.00155695
0.00156065
0.00155914
0.00155769
0.00156277
0.00157771
0.00159749
0.00160219
0.00157296
0.0014956
0.00137777
0.00125388
0.00114217
0.00105604
0.000983487
0.000898417
0.000763409
0.000529835
0.000369256
0.000657518
0.000871239
0.00100155
0.00109
0.0011612
0.00122165
0.00127199
0.00131188
0.00134194
0.00136424
0.00138304
0.00140244
0.00142583
0.00145302
0.00147945
0.0014988
0.00150549
0.00149879
0.00148382
0.00146681
0.00145839
0.001465
0.00148771
0.00150129
0.00148766
0.00143703
0.00135486
0.00125137
0.00115111
0.00106964
0.000994238
0.000897683
0.000731602
0.000474763
0.000355022
0.000644034
0.000859051
0.000990532
0.00108015
0.0011527
0.00121478
0.00126681
0.00130786
0.00133798
0.00135832
0.00137141
0.00138416
0.00140036
0.00142233
0.00144778
0.00146977
0.00147933
0.00147365
0.00145138
0.00141693
0.00138271
0.00136975
0.00138494
0.0014127
0.00142023
0.0013951
0.00133409
0.00125058
0.00116519
0.00108453
0.00100498
0.000899802
0.000724291
0.000455234
0.000335651
0.000629821
0.000846398
0.000979169
0.00107013
0.00114422
0.0012083
0.0012626
0.00130592
0.0013376
0.00135794
0.00136946
0.00137615
0.00138504
0.00140075
0.00142427
0.00145063
0.00146897
0.00147027
0.00144842
0.00140717
0.00135404
0.00130354
0.00127845
0.00128459
0.00131061
0.00132271
0.00129993
0.0012417
0.00116377
0.00108652
0.00100874
0.000905604
0.00072638
0.00045603
0.000316158
0.000616468
0.000833636
0.00096782
0.00106024
0.00113593
0.00120208
0.00125896
0.00130526
0.0013389
0.00136044
0.00137133
0.0013752
0.00137694
0.00138391
0.00140181
0.00143064
0.00146171
0.00148339
0.00148933
0.00146737
0.00142093
0.00135725
0.00129229
0.00125034
0.00123049
0.00123356
0.00123317
0.00121022
0.00116027
0.00109154
0.00101799
0.000920851
0.00074796
0.000504455
0.000308929
0.00060899
0.000824818
0.000959322
0.00105279
0.00112977
0.00119767
0.00125662
0.00130523
0.00134227
0.00136657
0.00137807
0.00137975
0.00137659
0.00137501
0.00138237
0.00140541
0.00144111
0.00148092
0.00151394
0.00153294
0.00152834
0.00149802
0.00143526
0.0013457
0.00126709
0.00123124
0.00121131
0.00119273
0.00115941
0.00110844
0.00104218
0.000952371
0.000800623
0.000618201
0.000309005
0.000606218
0.000818464
0.000952491
0.00104671
0.00112491
0.00119428
0.00125521
0.00130635
0.00134566
0.00137116
0.00138282
0.00138247
0.00137357
0.00136228
0.00135733
0.0013672
0.00139758
0.00144414
0.00149842
0.00154959
0.00158583
0.00159834
0.00158302
0.00152783
0.00143963
0.0013296
0.00124398
0.00119778
0.00116621
0.00111316
0.00105423
0.000978175
0.000856785
0.000725148
0.000324799
0.000608403
0.00081546
0.000948274
0.00104293
0.00112208
0.00119253
0.00125492
0.0013077
0.00134879
0.00137614
0.00138835
0.00138653
0.00137324
0.00135011
0.00132963
0.00132434
0.00134021
0.00138393
0.00144773
0.00151977
0.00158516
0.00163242
0.00165728
0.00164921
0.00159835
0.00150453
0.00138608
0.00127514
0.00119535
0.00113535
0.00107555
0.00100423
0.000893636
0.000739932
0.000340748
0.000608827
0.000811578
0.000942957
0.00103775
0.0011179
0.00118972
0.00125408
0.00130924
0.00135296
0.00138269
0.00139584
0.00139219
0.00137332
0.00134399
0.00130657
0.00127383
0.00127094
0.00130159
0.00136655
0.00145073
0.00154025
0.0016179
0.00166855
0.00168312
0.00165422
0.00157662
0.00146264
0.00134083
0.00124162
0.00116569
0.00109816
0.00101891
0.000891614
0.000681446
0.000345424
0.000605855
0.000804647
0.000935838
0.00103121
0.00111219
0.00118516
0.00125147
0.0013094
0.00135688
0.00139067
0.00140747
0.00140599
0.0013865
0.00135062
0.00130396
0.00125599
0.00121672
0.00121377
0.0012647
0.00135431
0.00146714
0.00157558
0.00165157
0.00167535
0.00164947
0.00157434
0.00146462
0.00135079
0.00125519
0.00117884
0.00110744
0.00101576
0.000855752
0.000549561
0.00034342
0.000598008
0.000797074
0.000928374
0.00102395
0.00110555
0.00117958
0.00124758
0.00130826
0.00135948
0.00139838
0.0014223
0.00142713
0.00141242
0.00137706
0.00132302
0.00125932
0.00120503
0.00117845
0.00118378
0.00123975
0.00134344
0.00146101
0.00155386
0.0015946
0.00159173
0.00153803
0.00145105
0.00135451
0.00126641
0.00118909
0.00110945
0.000997936
0.000799191
0.000475548
0.000326192
0.000582867
0.000784175
0.000916921
0.00101334
0.00109583
0.00117117
0.0012411
0.0013049
0.00136042
0.00140639
0.00143921
0.00145485
0.00145352
0.00143261
0.00139039
0.00132855
0.00125819
0.00119648
0.00117248
0.00118804
0.00124981
0.0013369
0.00142177
0.00148749
0.00151155
0.00149394
0.00143579
0.00135502
0.0012738
0.00119494
0.00111193
0.000997371
0.000790396
0.000461691
0.00030845
0.00057171
0.000774782
0.000908073
0.00100472
0.00108756
0.00116357
0.00123464
0.00130078
0.00135996
0.00141027
0.00144974
0.00147619
0.00148679
0.00148174
0.00145782
0.00141167
0.00134165
0.0012589
0.00118923
0.00116277
0.00118293
0.00124292
0.00131766
0.00138413
0.00142446
0.0014282
0.00139587
0.00133869
0.00127121
0.00119613
0.00111378
0.000999637
0.000792427
0.000469401
0.000292041
0.000559957
0.000764205
0.000898447
0.000995909
0.00107969
0.00115687
0.00122925
0.00129747
0.00135947
0.00141387
0.00145864
0.00149232
0.0015139
0.00152285
0.00151905
0.00149944
0.00145695
0.00138612
0.00129368
0.00120823
0.00116675
0.00116979
0.0012066
0.00126444
0.00132387
0.00136246
0.00136435
0.00133409
0.00127431
0.00120394
0.00112631
0.00101923
0.000824077
0.000545267
0.000285692
0.000555683
0.00075915
0.000892558
0.000989844
0.00107398
0.00115187
0.00122517
0.0012948
0.0013587
0.00141575
0.00146378
0.00150173
0.00152908
0.00154536
0.00155222
0.00155063
0.00153739
0.0015064
0.00145062
0.00137356
0.00129233
0.00122714
0.00119906
0.00120211
0.0012277
0.00126406
0.00129481
0.00129921
0.00127322
0.00121581
0.0011439
0.00104579
0.000874241
0.000636308
0.000284772
0.000553607
0.000754217
0.000886712
0.000984032
0.00106887
0.00114791
0.00122265
0.00129381
0.00135977
0.00141843
0.00146835
0.00150843
0.00153837
0.00155811
0.0015686
0.00157276
0.00157031
0.0015594
0.00153584
0.00149572
0.00144273
0.00137852
0.00130887
0.00125359
0.00123253
0.001243
0.00125669
0.00126415
0.00125594
0.00121784
0.00115584
0.00106862
0.000918455
0.000703869
0.000291183
0.000553354
0.000751505
0.00088227
0.000979073
0.00106422
0.00114412
0.00122008
0.00129251
0.00135964
0.00142046
0.00147204
0.00151341
0.00154435
0.00156521
0.00157556
0.00157826
0.00157603
0.00156972
0.00156003
0.00154638
0.00152605
0.00149237
0.00144219
0.00138124
0.0013216
0.00127418
0.00125856
0.00126084
0.0012512
0.00121789
0.00116391
0.00108689
0.00094778
0.000716135
0.000298097
0.000553693
0.000748384
0.00087701
0.000973183
0.00105873
0.00113969
0.00121718
0.00129136
0.00136048
0.00142258
0.00147535
0.00151741
0.00154829
0.00156833
0.00157769
0.00157764
0.00156967
0.00155949
0.00155013
0.00154363
0.00153889
0.0015297
0.00150724
0.00146667
0.00141207
0.00135423
0.00130831
0.00127744
0.00125584
0.00122057
0.00117038
0.00109609
0.000950421
0.000695875
0.000301687
0.000553061
0.000744023
0.000870704
0.000966189
0.00105189
0.00113369
0.00121265
0.00128881
0.00135997
0.00142358
0.00147843
0.00152229
0.00155433
0.00157455
0.00158294
0.00157885
0.00156467
0.00154321
0.00152337
0.0015128
0.0015141
0.00151793
0.00151135
0.0014911
0.00145507
0.00140529
0.00135358
0.00130963
0.00127179
0.00122813
0.00117471
0.00109577
0.000940439
0.000636377
0.000301913
0.000549457
0.000738015
0.000863086
0.000957871
0.00104365
0.00112621
0.00120655
0.00128458
0.00135772
0.00142347
0.00148103
0.00152736
0.00156176
0.00158384
0.00159298
0.00158751
0.00156778
0.0015382
0.00150552
0.00148024
0.00147418
0.00148194
0.00149114
0.00148681
0.00146638
0.00143333
0.00138762
0.00133904
0.00129097
0.00123968
0.00118043
0.00109287
0.000916151
0.000595702
0.000298655
0.000544116
0.0007308
0.000854462
0.00094854
0.00103427
0.00111747
0.00119923
0.00127897
0.00135408
0.00142229
0.00148146
0.00153163
0.00156988
0.00159595
0.00160869
0.00160533
0.00158412
0.00154757
0.00150242
0.00146052
0.00143743
0.00143572
0.00144752
0.00145899
0.00145988
0.00144018
0.00140761
0.00136213
0.00131009
0.00125316
0.00118816
0.00109307
0.00090706
0.000585084
0.000293161
0.000537696
0.000722949
0.000845287
0.000938561
0.00102403
0.00110758
0.00119047
0.00127141
0.0013482
0.00141886
0.00148156
0.00153451
0.00157743
0.00160898
0.00162733
0.0016296
0.00161289
0.00157762
0.0015279
0.00147401
0.00143259
0.00140996
0.00140686
0.00141892
0.00143347
0.00143462
0.00141305
0.00137538
0.0013243
0.00126503
0.00119654
0.00109663
0.000908044
0.000587851
0.000288162
0.000531606
0.000715202
0.000836227
0.000928697
0.00101382
0.00109754
0.00118116
0.0012629
0.00134093
0.00141348
0.00147868
0.00153464
0.0015821
0.00161866
0.00164262
0.00165137
0.00164224
0.00161394
0.00156875
0.00151369
0.00146035
0.00141944
0.00140015
0.00139708