/*--------------------------------*- C++ -*----------------------------------*\
| =========                 |                                                 |
| \\      /  F ield         | OpenFOAM: The Open Source CFD Toolbox           |
|  \\    /   O peration     | Version:  2.3.x                                 |
|   \\  /    A nd           | Web:      www.OpenFOAM.org                      |
|    \\/     M anipulation  |                                                 |
\*---------------------------------------------------------------------------*/
FoamFile
{
    version     2.0;
    format      ascii;
    class       volScalarField;
    location    "900";
    object      k;
}
// * * * * * * * * * * * * * * * * * * * * * * * * * * * * * * * * * * * * * //

dimensions      [0 2 -2 0 0 0 0];

internalField   nonuniform List<scalar> 
78750
(
0.000123154
0.000321907
0.000395198
0.000426854
0.000449961
0.000477355
0.000506839
0.000532429
0.000555431
0.000574959
0.000591057
0.000604251
0.000615148
0.000623753
0.00063011
0.00064049
0.00065414
0.000664508
0.000670103
0.000670146
0.000669356
0.000665488
0.000659972
0.000653194
0.000645274
0.000636118
0.000625756
0.000613777
0.000600401
0.000585535
0.000568391
0.000547786
0.000522011
0.000459844
0.000187208
8.10056e-05
0.000213883
0.000275654
0.000309323
0.000358105
0.000428445
0.000502602
0.000574898
0.000638905
0.000692669
0.000736306
0.00077113
0.000798122
0.000817835
0.000832437
0.000832638
0.000827449
0.000814769
0.000800583
0.000785927
0.000771336
0.000756859
0.00074231
0.000727758
0.00071322
0.000698647
0.000684763
0.000671216
0.000654733
0.000636887
0.000616676
0.000591297
0.000551675
0.000474693
0.000309029
2.14169e-05
0.00011251
0.000202187
0.000303227
0.000418931
0.000544918
0.000648627
0.000724587
0.000774923
0.000810844
0.000836158
0.00085191
0.000859613
0.000859342
0.000855137
0.000846362
0.000832639
0.000815682
0.000797578
0.000778466
0.000758258
0.00073715
0.00071546
0.00069347
0.000671753
0.000651424
0.000632062
0.000615008
0.000602887
0.000594498
0.000588055
0.000576443
0.000541738
0.000478371
0.000389193
2.67618e-05
0.000204974
0.000385429
0.000556077
0.000687947
0.000758111
0.000807565
0.000846084
0.000875276
0.000892279
0.000900208
0.000901271
0.000898544
0.000889808
0.000875973
0.000856135
0.000834496
0.00081109
0.00078594
0.0007592
0.00073145
0.000703224
0.000675006
0.000647487
0.000621329
0.000596157
0.000573757
0.000556764
0.000545013
0.000538714
0.00053777
0.000536139
0.00051706
0.000476769
0.000418344
4.5909e-05
0.000259359
0.000464909
0.000617994
0.000717264
0.00078449
0.000832532
0.000867013
0.000890762
0.000906348
0.000914291
0.000914614
0.000909776
0.000896706
0.000878126
0.000854954
0.000827601
0.000797773
0.000767338
0.000735985
0.000703714
0.000671519
0.000639538
0.000607858
0.000576293
0.000547558
0.000524897
0.000508028
0.000497411
0.000493918
0.000495894
0.000499716
0.000493196
0.000466725
0.000417848
9.13084e-05
0.000354069
0.000571442
0.000715536
0.000803888
0.00086118
0.00090091
0.000929127
0.000947569
0.000956286
0.000956001
0.00094877
0.000933181
0.000911432
0.000884366
0.000853269
0.000820707
0.000787486
0.000753685
0.000721301
0.000690821
0.000660786
0.000630693
0.000599345
0.000567633
0.000537874
0.000509883
0.000485254
0.00046903
0.000463181
0.000466223
0.000474546
0.000473882
0.000452977
0.000396196
0.000111415
0.000371184
0.000581562
0.0007218
0.000809076
0.00086607
0.000906062
0.000934463
0.000953106
0.000962856
0.000963951
0.000957344
0.000942408
0.000920557
0.000892668
0.000859771
0.000823881
0.000787868
0.000753139
0.000720691
0.000691256
0.000663469
0.00063695
0.000610288
0.000582037
0.000552806
0.000523091
0.000493008
0.000466428
0.000449975
0.000447633
0.000453356
0.000453943
0.000433642
0.000368707
0.000144125
0.000415011
0.000622126
0.000757456
0.000842058
0.000899367
0.000940864
0.000970546
0.000990085
0.000999976
0.00100049
0.000992304
0.000975328
0.000950625
0.00091976
0.000884309
0.000845973
0.000806888
0.000768369
0.000732013
0.000698496
0.000669589
0.00064396
0.000620055
0.000597048
0.000573547
0.000547116
0.000515996
0.000480992
0.000452485
0.000439971
0.00044023
0.0004387
0.000418123
0.000359443
0.000147158
0.000418537
0.000626303
0.000761647
0.00084581
0.000902934
0.000945063
0.000976512
0.000998689
0.00101201
0.0010164
0.00101217
0.000999419
0.000978328
0.000949209
0.000912832
0.000870714
0.000825405
0.000779024
0.000735567
0.000697092
0.0006647
0.000637934
0.000615126
0.000595357
0.000575936
0.000553945
0.000526867
0.000494187
0.000459929
0.000439926
0.000433215
0.000428468
0.000408339
0.000357283
0.000147947
0.000418696
0.000629831
0.000770524
0.000859104
0.000919979
0.000965593
0.0010003
0.00102556
0.00104193
0.00104954
0.00104898
0.00104049
0.00102448
0.00100141
0.000971712
0.000935829
0.000894501
0.000848233
0.000797407
0.000744046
0.000692101
0.000647171
0.000613829
0.000590823
0.000573519
0.00055597
0.000534624
0.000506808
0.000473015
0.000444076
0.000431079
0.000422083
0.000401904
0.000359589
0.000147441
0.000419239
0.00063062
0.00077237
0.000863152
0.00092615
0.000973702
0.00101048
0.00103822
0.00105753
0.00106858
0.00107134
0.00106603
0.00105267
0.00103174
0.00100389
0.000970032
0.000931345
0.000889185
0.000843495
0.000794261
0.000741803
0.000687112
0.000633486
0.000588971
0.000559361
0.000540607
0.00052466
0.000504647
0.000476507
0.000449889
0.000432578
0.000421433
0.00040237
0.000372688
0.000145899
0.000418601
0.000633899
0.000781713
0.000877226
0.00094353
0.000993776
0.00103304
0.00106319
0.00108497
0.00109862
0.00110417
0.00110186
0.00109161
0.00107362
0.00104819
0.00101582
0.000977391
0.000934347
0.000887608
0.000837759
0.000785105
0.00072967
0.000672436
0.000618999
0.000575527
0.000542173
0.000515482
0.000493519
0.000473223
0.000452181
0.000435977
0.000423188
0.000407361
0.000392
0.000149343
0.000424677
0.000641533
0.000791014
0.000888492
0.000956577
0.00100836
0.00104911
0.00108086
0.00110447
0.00112015
0.00112781
0.00112737
0.00111909
0.00110261
0.0010785
0.00104731
0.00100981
0.000967126
0.000920238
0.000869438
0.000814938
0.000756994
0.000696845
0.000639978
0.000591813
0.000551049
0.0005182
0.000492657
0.000471246
0.000453071
0.000439685
0.000428634
0.000416208
0.000410313
0.000155311
0.000434792
0.000656303
0.000808331
0.000907409
0.000976859
0.00103003
0.00107223
0.00110557
0.00113103
0.00114885
0.00115891
0.00116093
0.0011554
0.00114124
0.00111914
0.00108943
0.00105266
0.00100981
0.000962068
0.000909682
0.000852725
0.000791363
0.000726843
0.000664862
0.000611534
0.000565888
0.000527363
0.000496208
0.000472707
0.000455806
0.00044475
0.000435734
0.000425941
0.000423797
0.000162853
0.000447082
0.000671839
0.000824907
0.000924132
0.000993771
0.00104754
0.00109081
0.00112557
0.00115278
0.00117275
0.00118531
0.00118982
0.00118648
0.00117502
0.00115565
0.00112822
0.00109307
0.00105105
0.00100317
0.000949442
0.000890035
0.000825369
0.000756715
0.000689388
0.000630458
0.000579854
0.000536757
0.000502214
0.000476574
0.000460097
0.000450851
0.000443649
0.000435977
0.000437502
0.000171184
0.000463624
0.000694408
0.000848706
0.000947136
0.00101603
0.00106948
0.00111276
0.00114796
0.00117624
0.00119815
0.00121365
0.0012222
0.00122341
0.00121755
0.00120224
0.00117766
0.00114406
0.00110261
0.00105403
0.000998652
0.000936987
0.000869335
0.0007971
0.000724039
0.000657834
0.000601408
0.000552755
0.000512972
0.00048379
0.000466448
0.000458259
0.000452906
0.000447923
0.000453761
0.000181813
0.000483413
0.000718828
0.000872351
0.00096846
0.00103584
0.00108852
0.0011313
0.00116636
0.00119504
0.0012181
0.0012358
0.00124823
0.00125459
0.00125395
0.00124531
0.00122731
0.001199
0.00116007
0.00111113
0.00105287
0.0009874
0.000915055
0.000837865
0.000759079
0.000686194
0.00062384
0.000569972
0.00052553
0.000492888
0.00047453
0.000467075
0.000463332
0.000459864
0.000462867
0.000194324
0.000506054
0.000746781
0.000898581
0.000992028
0.00105757
0.00110894
0.00115064
0.001185
0.00121358
0.00123723
0.00125653
0.00127101
0.00127998
0.00128262
0.00127871
0.00126597
0.00124402
0.00121214
0.00116943
0.00111485
0.00104772
0.000968696
0.000882128
0.000793207
0.000711399
0.000641843
0.000582519
0.000534773
0.00050117
0.000484101
0.000477755
0.000474131
0.000469083
0.000464783
0.000212655
0.000535722
0.000779181
0.000925974
0.00101501
0.00107755
0.00112637
0.0011659
0.00119868
0.00122641
0.00125007
0.00127004
0.00128632
0.00129799
0.00130405
0.0013034
0.00129504
0.00127789
0.00125138
0.00121437
0.00116602
0.00110507
0.00102963
0.000938596
0.000838724
0.000747388
0.00066745
0.00059842
0.000544615
0.000508842
0.000492203
0.000486873
0.000483458
0.000477546
0.00047286
0.000233889
0.000565431
0.000808889
0.000950027
0.0010343
0.00109351
0.00113954
0.0011768
0.00120774
0.00123366
0.00125733
0.0012794
0.0012986
0.0013133
0.00132266
0.00132554
0.00132144
0.00130854
0.00128631
0.00125358
0.00120993
0.00115465
0.00108648
0.00100404
0.000910052
0.000813606
0.000718257
0.000631906
0.000564982
0.000522314
0.000503605
0.000498126
0.000494833
0.000489997
0.000490571
0.000257127
0.000595153
0.000835347
0.000970436
0.00104988
0.00110538
0.00114819
0.00118234
0.00120952
0.00123428
0.00125756
0.00127989
0.00130095
0.00132023
0.00133409
0.00134094
0.00134057
0.00133213
0.00131386
0.00128479
0.0012447
0.00119341
0.00113059
0.00105581
0.000970783
0.000880276
0.000784079
0.00068534
0.00059869
0.000540361
0.00051448
0.000508483
0.00050667
0.000502512
0.000493957
0.000274809
0.000617006
0.000854408
0.000984865
0.00106053
0.00111275
0.00115228
0.00118285
0.00120957
0.00123342
0.00125681
0.00127989
0.00130182
0.00132104
0.00133715
0.0013495
0.00135451
0.00135088
0.00133705
0.00131202
0.00127548
0.00122722
0.00116713
0.00109519
0.00101235
0.000920667
0.000819887
0.000716417
0.000625977
0.000564013
0.000534077
0.000524247
0.000518867
0.000509233
0.000483749
0.000287531
0.00063178
0.000867875
0.000995971
0.00106911
0.00111873
0.00115545
0.00118287
0.0012044
0.00122349
0.00124402
0.00126764
0.00129283
0.00131666
0.00133645
0.00135049
0.00135933
0.00136177
0.00135386
0.00133471
0.00130426
0.00126214
0.00120787
0.00114075
0.00106051
0.000967263
0.000859432
0.000744374
0.00064326
0.000578053
0.000549261
0.000538402
0.000529575
0.000513921
0.000479333
0.000296937
0.000642609
0.000877642
0.0010046
0.00107676
0.00112475
0.00115871
0.0011819
0.00119868
0.00121319
0.00122974
0.0012511
0.0012765
0.00130292
0.00132706
0.00134642
0.00135935
0.00136505
0.00136271
0.00134949
0.0013254
0.00129047
0.00124451
0.00118681
0.00111661
0.00103239
0.000929638
0.00081044
0.000692624
0.000606455
0.000565296
0.000550345
0.00053973
0.000521973
0.000485754
0.000305116
0.000651776
0.000886214
0.00101297
0.00108554
0.00113324
0.00116527
0.00118547
0.00119688
0.00120468
0.00121502
0.00123157
0.00125499
0.00128247
0.0013099
0.00133401
0.00135246
0.00136298
0.00136396
0.00135539
0.00133566
0.00130495
0.00126366
0.00121164
0.00114834
0.00107204
0.000978271
0.00086654
0.000747932
0.000649494
0.000592676
0.000567831
0.000551891
0.000529697
0.000486634
0.000309401
0.000654249
0.000889138
0.00101779
0.00109263
0.00114233
0.00117499
0.00119283
0.00119997
0.00120089
0.00120085
0.00120936
0.00122671
0.0012524
0.00128212
0.00131095
0.00133507
0.00135174
0.00135911
0.00135578
0.00134154
0.001316
0.00127828
0.0012289
0.00116768
0.00109231
0.000999458
0.000890526
0.000776508
0.000680389
0.000618849
0.000586462
0.000564249
0.000535737
0.000483952
0.000313721
0.000655687
0.000890639
0.00102172
0.00109913
0.00115171
0.00118702
0.00120592
0.001209
0.00120189
0.00119371
0.00118849
0.00119661
0.00121584
0.00124389
0.00127572
0.00130532
0.00132876
0.00134361
0.00134822
0.00134168
0.00132355
0.00129424
0.00125275
0.00119825
0.00112739
0.00103672
0.000927248
0.000809969
0.000709572
0.000642406
0.000603838
0.000576781
0.000543566
0.000488593
0.000314939
0.000655536
0.000890576
0.00102268
0.0011037
0.00115991
0.00119911
0.00122213
0.00122841
0.00121994
0.00120086
0.00118247
0.0011719
0.00117597
0.00119873
0.00122983
0.00126311
0.00129284
0.00131529
0.00132822
0.00133022
0.00132097
0.00130001
0.00126785
0.00122341
0.00116298
0.00108216
0.000979289
0.000861257
0.000751679
0.000672169
0.000624003
0.000591251
0.000554821
0.000499951
0.000314637
0.000653262
0.000889087
0.00102364
0.00110723
0.00116687
0.00121001
0.00123759
0.00124859
0.00124499
0.00122739
0.00119933
0.00117071
0.00115666
0.00115442
0.00117637
0.00120776
0.00124083
0.00127001
0.00129115
0.00130177
0.00130056
0.00128737
0.0012625
0.0012252
0.0011729
0.00110165
0.00100922
0.000899815
0.000791267
0.000704881
0.000648266
0.000608331
0.000564949
0.000499133
0.000310585
0.000645649
0.000882526
0.00102108
0.00110809
0.00117163
0.00121889
0.00125104
0.00126749
0.00126896
0.00125657
0.00123152
0.00119654
0.00115911
0.00113542
0.00112827
0.00114688
0.00117715
0.00120987
0.0012388
0.00125916
0.00126811
0.00126474
0.00124858
0.00121856
0.0011714
0.00110466
0.00101859
0.000918576
0.000817672
0.000731769
0.000670221
0.000623839
0.000572963
0.000498932
0.000306254
0.000638624
0.000875874
0.0010174
0.00110793
0.00117576
0.00122747
0.00126457
0.0012869
0.0012935
0.00128654
0.0012665
0.0012347
0.00119328
0.00114778
0.00111182
0.00109679
0.00110533
0.00113562
0.00116927
0.00119964
0.00122135
0.00123174
0.0012294
0.00121158
0.00117445
0.00111696
0.00103702
0.000942079
0.00084499
0.000759154
0.00069365
0.00064217
0.000585391
0.000505977
0.000301534
0.000630112
0.000867915
0.00101297
0.00110776
0.00117884
0.00123463
0.00127654
0.00130447
0.00131697
0.00131603
0.0013017
0.00127512
0.00123761
0.00119112
0.00114005
0.00109509
0.00106954
0.00106679
0.00109023
0.00112248
0.00115375
0.00117774
0.00119116
0.00119026
0.00116978
0.00112391
0.00105646
0.000968681
0.000873289
0.0007854
0.000716145
0.000660307
0.000598656
0.000514651
0.000294455
0.000619777
0.000858594
0.00100712
0.00110568
0.00118083
0.00124105
0.00128785
0.0013212
0.0013407
0.00134538
0.00133695
0.00131581
0.00128299
0.00123971
0.00118777
0.00113094
0.00107725
0.00103863
0.00102228
0.00103677
0.00106955
0.00110371
0.00113145
0.00114676
0.0011432
0.00111528
0.00105825
0.000983664
0.000895896
0.000809754
0.000739048
0.000679638
0.000611805
0.000515267
0.000286344
0.00060895
0.000849026
0.00100143
0.00110396
0.00118312
0.00124757
0.00129912
0.00133773
0.00136299
0.00137373
0.0013716
0.00135643
0.00132898
0.00129027
0.00124162
0.00118496
0.00112395
0.00106379
0.00101471
0.000988045
0.000991019
0.00102228
0.00106018
0.00109073
0.00110349
0.00109192
0.00105238
0.000988684
0.000909609
0.000828049
0.000757955
0.000696115
0.000622082
0.000516327
0.000277269
0.000597268
0.000838674
0.00099523
0.00110211
0.00118532
0.00125394
0.00131002
0.0013537
0.00138457
0.0014021
0.00140574
0.00139658
0.00137493
0.00134143
0.00129696
0.00124287
0.00118133
0.0011155
0.00104941
0.000991883
0.000955998
0.000951631
0.000979961
0.0010222
0.00105373
0.00106109
0.00104057
0.000991582
0.000923868
0.000847411
0.000777967
0.000714697
0.000637436
0.000530809
0.000269502
0.000586561
0.000829687
0.000990921
0.00110212
0.00118987
0.00126291
0.0013235
0.00137187
0.00140772
0.00143055
0.00143967
0.00143584
0.00141926
0.00139044
0.00135
0.00129888
0.00123855
0.00117151
0.00109997
0.00102855
0.000966879
0.000930341
0.000929612
0.000957828
0.000999769
0.00102611
0.00102411
0.000990837
0.000934162
0.000863765
0.000796388
0.000733564
0.000656295
0.000550964
0.000265223
0.000578119
0.000822185
0.000989349
0.00110601
0.001198
0.00127546
0.00134043
0.0013931
0.00143334
0.00146087
0.00147505
0.00147576
0.00146345
0.00143836
0.00140105
0.00135226
0.00129307
0.00122511
0.00115033
0.00107134
0.000995163
0.000936181
0.000909177
0.000914985
0.000946319
0.000985251
0.00100285
0.000989011
0.000943611
0.000879244
0.000814607
0.000751704
0.000671388
0.000555558
0.000265015
0.000576014
0.000820537
0.000989936
0.00111115
0.00120828
0.00129094
0.00136036
0.00141721
0.00146178
0.00149386
0.0015127
0.00151775
0.00150951
0.00148779
0.0014532
0.00140639
0.00134831
0.0012802
0.00120364
0.00111973
0.00103346
0.000957668
0.000909785
0.000896391
0.000911413
0.000943506
0.000973126
0.000976472
0.000943498
0.000889024
0.000829347
0.000767504
0.00068365
0.000555656
0.000267668
0.000576017
0.000822262
0.000994926
0.00111872
0.00121922
0.00130626
0.00138069
0.00144314
0.00149334
0.00153066
0.00155426
0.00156353
0.00155913
0.00154071
0.00150846
0.00146318
0.00140578
0.00133765
0.00126042
0.00117456
0.00108284
0.000993484
0.000924579
0.000892143
0.000892463
0.000914525
0.000943409
0.000956352
0.000941424
0.000896547
0.000842038
0.000781448
0.000693344
0.00055903
0.000273
0.000580814
0.000827352
0.000999949
0.00112516
0.00122891
0.00132013
0.00139945
0.00146747
0.00152384
0.00156788
0.00159863
0.00161478
0.00161563
0.00160177
0.00157178
0.00152803
0.00147066
0.00140144
0.00132274
0.00123487
0.00113918
0.00104076
0.000955299
0.000901245
0.000883556
0.000893021
0.000919236
0.00093879
0.000935212
0.000902161
0.00085447
0.000796933
0.000710928
0.000586922
0.000280599
0.00058574
0.000831251
0.0010048
0.0011323
0.0012395
0.00133379
0.00141617
0.00148769
0.0015482
0.00159725
0.00163412
0.00165787
0.00166783
0.00166314
0.00164171
0.00160209
0.00154445
0.00147173
0.00138856
0.00129517
0.00119374
0.00108804
0.000991159
0.000922202
0.000886607
0.000884468
0.000902371
0.000925039
0.000929538
0.000907466
0.000866163
0.000812563
0.000729188
0.000603359
0.000291232
0.000595381
0.00083907
0.00101065
0.00113801
0.00124739
0.00134401
0.00142874
0.00150233
0.00156462
0.00161554
0.00165487
0.00168199
0.00169683
0.00169891
0.00168809
0.00166062
0.00161525
0.00155044
0.0014658
0.00136248
0.00124886
0.00113052
0.00102093
0.000939796
0.000893248
0.000881481
0.000894359
0.000916449
0.000925209
0.000910658
0.000875846
0.000825685
0.000741562
0.000602804
0.000300028
0.00060189
0.000843108
0.00101207
0.00113981
0.00124992
0.00134879
0.00143731
0.00151431
0.00157961
0.00163274
0.00167341
0.00170137
0.00171672
0.00171954
0.00171002
0.00168622
0.00164756
0.00159279
0.00151982
0.00142592
0.00130871
0.00117267
0.00104374
0.000947481
0.000894035
0.000879675
0.000893284
0.000915178
0.000925812
0.000914192
0.000883018
0.000833864
0.000743576
0.000580637
0.000307869
0.000607051
0.000844077
0.00101267
0.00114075
0.00125085
0.00134969
0.00143956
0.00151978
0.00158861
0.00164516
0.00168937
0.00172073
0.00173948
0.0017457
0.0017394
0.00171954
0.00168587
0.001638
0.00157409
0.00149162
0.00138658
0.00125542
0.00110647
0.000980238
0.000903241
0.000880525
0.000891797
0.000915369
0.000927492
0.000918122
0.000889585
0.000841144
0.000746833
0.000577397
0.000311185
0.000607434
0.000843379
0.00100861
0.0011359
0.00124694
0.00134811
0.00143924
0.00152042
0.0015915
0.00165193
0.00169942
0.0017336
0.00175503
0.00176395
0.00176017
0.00174324
0.00171326
0.00167071
0.00161503
0.00154523
0.00145828
0.0013491
0.00121688
0.00107549
0.00095162
0.000891297
0.000892452
0.000913
0.000928723
0.000923065
0.000896474
0.00084918
0.000756282
0.000592268
0.000313232
0.000606678
0.000837919
0.00100029
0.00112625
0.00123751
0.00134028
0.00143458
0.00151891
0.00159163
0.0016532
0.00170349
0.00174287
0.00176965
0.00178334
0.00178362
0.00177082
0.00174383
0.00170365
0.00165088
0.00158649
0.00150974
0.00141717
0.0013065
0.00118112
0.00104824
0.000944106
0.000904943
0.000914261
0.000929759
0.00092732
0.000904642
0.000859894
0.000768461
0.000604783
0.000314005
0.000603499
0.000832643
0.000993377
0.00111804
0.00122874
0.00133146
0.00142631
0.00151227
0.00158802
0.00165222
0.00170404
0.00174379
0.00177291
0.00178979
0.00179327
0.00178343
0.00175915
0.00172011
0.00166682
0.00160116
0.00152434
0.00143538
0.00133386
0.00122303
0.00110321
0.000995107
0.000935254
0.000926533
0.000937924
0.000936547
0.000914109
0.000868244
0.000770801
0.000599813
0.000313913
0.000599167
0.000824651
0.000983036
0.00110709
0.00121834
0.00132218
0.00141829
0.00150536
0.00158214
0.00164782
0.00170176
0.00174378
0.00177396
0.00179342
0.00180226
0.00179817
0.00177917
0.00174342
0.00169057
0.00162198
0.00153922
0.00144272
0.00133425
0.00122194
0.00111283
0.00102251
0.00096917
0.000954402
0.000955569
0.000947138
0.000921038
0.000870655
0.000764183
0.000564911
0.000311276
0.000592489
0.000814706
0.000971174
0.00109454
0.00120595
0.00131052
0.00140774
0.00149599
0.00157383
0.00164033
0.00169511
0.00173851
0.00177102
0.00179268
0.00180338
0.0018031
0.00179005
0.00176107
0.00171525
0.0016521
0.00157148
0.00147288
0.0013573
0.00123196
0.0011166
0.00102875
0.000983858
0.000971166
0.00096928
0.000957242
0.000929071
0.000876207
0.000763966
0.000558386
0.000306992
0.000584137
0.000802839
0.00095729
0.00107993
0.00119165
0.00129726
0.00139599
0.00148599
0.00156559
0.0016337
0.00168981
0.00173432
0.0017679
0.00179091
0.00180331
0.00180546
0.00179724
0.00177613
0.00174021
0.0016886
0.00162032
0.00153395
0.00142831
0.00130238
0.00116798
0.00105985
0.0010019
0.000985454
0.00098127
0.000966637
0.000936279
0.00088164
0.000766228
0.000567236
0.00030365
0.000575596
0.000790641
0.000943152
0.00106524
0.00117729
0.00128377
0.00138367
0.00147493
0.00155578
0.0016251
0.00168241
0.00172817
0.00176304
0.00178744
0.00180154
0.00180532
0.00179789
0.00177836
0.001747
0.00170401
0.0016484
0.00157865
0.00149248
0.00138367
0.00125398
0.00112728
0.00104322
0.00100746
0.000994131
0.000976923
0.000945809
0.000891559
0.000779588
0.000592775
0.000301871
0.000568246
0.000778263
0.000928225
0.00104969
0.00116247
0.00127048
0.00137223
0.00146527
0.00154761
0.00161808
0.00167629
0.0017229
0.00175868
0.00178406
0.00179919
0.00180405
0.00179739
0.00177842
0.0017475
0.00170597
0.00165475
0.00159398
0.00152157
0.00143086
0.00131835
0.00119514
0.00109427
0.00103827
0.0010137
0.000991024
0.000957188
0.000901062
0.000787809
0.000596269
0.000298075
0.000559516
0.00076432
0.000911039
0.00103136
0.00114465
0.00125433
0.00135832
0.0014536
0.00153776
0.00160946
0.00166835
0.00171534
0.00175144
0.00177736
0.00179342
0.00179949
0.00179389
0.00177529
0.00174404
0.0017015
0.00164944
0.00158931
0.00152024
0.00143841
0.00134198
0.00123628
0.00114091
0.00107619
0.00103903
0.00100759
0.000968326
0.000907425
0.000787674
0.000582177
0.000294006
0.000551824
0.00075089
0.000893357
0.00101165
0.00112496
0.00123631
0.00134309
0.00144164
0.00152898
0.00160337
0.00166427
0.0017126
0.00174947
0.00177581
0.00179233
0.00179902
0.00179437
0.00177697
0.00174649
0.00170379
0.00165085
0.00158966
0.00151946
0.00143791
0.00134536
0.0012518
0.00116833
0.00110516
0.00106131
0.0010227
0.000978953
0.000914368
0.000788695
0.00057435
0.000291586
0.000545085
0.000737542
0.000874776
0.000990433
0.0011032
0.00121569
0.00132481
0.00142633
0.0015168
0.00159414
0.00165769
0.00170825
0.00174691
0.00177473
0.00179259
0.00180075
0.00179895
0.00178563
0.00176
0.00172175
0.00167199
0.00161177
0.0015383
0.001452
0.00135857
0.00126681
0.00118914
0.00112968
0.00108346
0.00103955
0.000991135
0.000922465
0.000791692
0.000578554
0.000291167
0.000540629
0.000725937
0.000856568
0.000968501
0.00108016
0.00119361
0.00130518
0.00140993
0.00150376
0.0015842
0.00165042
0.00170313
0.00174343
0.0017725
0.00179161
0.00180079
0.00180003
0.00178966
0.00176995
0.00174118
0.00170363
0.00165541
0.00159161
0.00150959
0.0014128
0.00131238
0.0012245
0.00115792
0.00110607
0.00105745
0.00100604
0.000937102
0.000811595
0.000616779
0.000292088
0.000537427
0.000715654
0.00083875
0.000945074
0.00105417
0.00116766
0.00128135
0.00138941
0.0014869
0.00157073
0.00163979
0.00169456
0.001736
0.00176528
0.00178352
0.0017913
0.00178949
0.00177915
0.00176194
0.00173906
0.00171113
0.00167614
0.00162833
0.00156189
0.00147484
0.00137485
0.00127665
0.0011964
0.0011341
0.00107892
0.00102337
0.000951133
0.00082436
0.000625282
0.00029237
0.000535837
0.000708278
0.000824025
0.000923732
0.00102821
0.00114074
0.00125615
0.00136765
0.00146928
0.00155724
0.00163004
0.00168787
0.00173141
0.00176154
0.00177877
0.00178354
0.00177673
0.00176033
0.00173824
0.00171352
0.00168924
0.00166299
0.00162679
0.00157337
0.00150229
0.00141321
0.001317
0.00123162
0.00116232
0.00110131
0.00104074
0.000963032
0.000827127
0.000618437
0.000291426
0.00053467
0.000703049
0.000812096
0.000904509
0.00100301
0.00111229
0.00122864
0.00134312
0.00144863
0.00154071
0.00161756
0.00167919
0.00172606
0.00175878
0.00177712
0.00178144
0.0017722
0.00175052
0.00171948
0.00168557
0.00165481
0.00162804
0.00160007
0.00156218
0.00150302
0.00143054
0.00134358
0.00125854
0.00118415
0.00111783
0.00105192
0.000966576
0.000819948
0.000582097
0.000288244
0.000534399
0.000700485
0.00080425
0.000889887
0.000981703
0.00108643
0.0012016
0.00131896
0.00142839
0.00152453
0.00160535
0.00167091
0.00172169
0.00175794
0.00177951
0.00178566
0.00177623
0.00175165
0.0017148
0.00167132
0.00162891
0.00159098
0.00155842
0.00152723
0.00148958
0.00143223
0.00136205
0.00128319
0.00120706
0.00113645
0.00106585
0.000974971
0.000819055
0.000570873
0.000287268
0.000534999
0.000700251
0.000798729
0.000877908
0.000962578
0.00106159
0.00117468
0.00129359
0.00140778
0.0015087
0.00159394
0.00166376
0.00171887
0.00175929
0.00178589
0.00179755
0.00179304
0.00177226
0.00173623
0.00168944
0.00163861
0.00158967
0.00154372
0.00150215
0.00146458
0.00142338
0.00136623
0.00129806
0.00122469
0.00115231
0.00107881
0.000983605
0.000820546
0.000571746
0.000289388
0.000538768
0.000701714
0.00079787
0.000870995
0.000948225
0.00104024
0.00114908
0.00126801
0.00138538
0.00149144
0.0015811
0.00165482
0.00171359
0.00175754
0.00178712
0.00180344
0.00180713
0.00179686
0.00177155
0.00173334
0.0016847
0.00162564
0.00156349
0.00150775
0.00146533
0.00142417
0.00137389
0.00131476
0.00124638
0.00117326
0.00109714
0.00100024
0.000838023
0.000609314
0.000296273
0.000544136
0.000705581
0.000798672
0.000868626
0.000939266
0.00102371
0.00112702
0.0012446
0.00136434
0.001475
0.00156934
0.00164661
0.00170781
0.00175363
0.00178513
0.00180354
0.0018099
0.00180526
0.00179015
0.00176617
0.00173233
0.00168541
0.00162547
0.00155835
0.00149248
0.00143755
0.00138768
0.00133225
0.00126748
0.00119537
0.001119
0.00102212
0.000864165
0.000647599
0.000303794
0.000549277
0.000709637
0.000801623
0.000868668
0.000933232
0.00100906
0.00110475
0.00121896
0.00134029
0.00145498
0.00155457
0.00163569
0.00169907
0.00174565
0.00177678
0.0017942
0.00179984
0.00179565
0.00178367
0.00176649
0.0017431
0.0017104
0.00166482
0.0016059
0.00154088
0.00147688
0.00141642
0.00135524
0.00128828
0.0012159
0.00113877
0.00103957
0.000879382
0.000651443
0.000309087
0.000551632
0.000712439
0.000803841
0.000868943
0.000929143
0.000996192
0.0010818
0.00118964
0.00131087
0.00142976
0.00153489
0.00162091
0.00168741
0.00173529
0.00176585
0.00178095
0.00178296
0.00177472
0.00175998
0.00174372
0.00172704
0.0017038
0.00166793
0.00162217
0.00156641
0.00150399
0.00143988
0.00137473
0.00130602
0.00123332
0.00115458
0.00105108
0.000880948
0.000633281
0.000309702
0.000551714
0.000713754
0.000806402
0.000871331
0.000928952
0.000986629
0.00105987
0.00115708
0.00127453
0.00139712
0.00150887
0.00160178
0.00167371
0.00172531
0.00175755
0.00177176
0.00177039
0.00175626
0.00173402
0.00171076
0.00169128
0.00167454
0.00165441
0.00162125
0.00157611
0.00152162
0.00145874
0.00139159
0.00132099
0.00124733
0.00116664
0.00105773
0.000876708
0.000605023
0.000307451
0.000548102
0.000713235
0.000808127
0.000873712
0.000929629
0.000983474
0.00104204
0.00112408
0.00123205
0.00135444
0.00147309
0.00157434
0.00165401
0.00171224
0.00174963
0.00176685
0.00176605
0.00174924
0.00172051
0.00168693
0.00165596
0.00163266
0.00161557
0.00159832
0.00157141
0.00152788
0.00147294
0.00140735
0.00133574
0.00126067
0.00117801
0.00106595
0.000878697
0.00059522
0.000299758
0.000541986
0.000710105
0.000808494
0.000876119
0.000932475
0.000983832
0.00103555
0.00109785
0.00118869
0.00130428
0.00142678
0.00153747
0.00162718
0.00169478
0.00174049
0.00176487
0.00176877
0.00175413
0.00172421
0.00168464
0.00164234
0.00160624
0.00158237
0.00156722
0.00155076
0.00152254
0.00147633
0.00141718
0.00134835
0.0012737
0.00119104
0.00107773
0.000883513
0.000595623
0.000290548
0.00053544
0.000707237
0.000808945
0.000878886
0.000936475
0.000986786
0.00103392
0.00108532
0.00115375
0.00125343
0.00137248
0.00149021
0.00159164
0.001671
0.00172798
0.00176306
0.00177663
0.00176947
0.00174361
0.00170217
0.0016514
0.00160302
0.00156372
0.00153981
0.00152612
0.00150743
0.00147277
0.0014208
0.00135641
0.00128371
0.00120166
0.00108845
0.00089312
0.000606966
0.000280724
0.000527097
0.000702315
0.000808214
0.00088131
0.000941505
0.000993475
0.00103985
0.00108604
0.00114136
0.0012132
0.00131643
0.00143372
0.00154475
0.00163701
0.00170703
0.00175531
0.00178249
0.00178877
0.00177492
0.00174105
0.00168927
0.00162666
0.00157083
0.00153581
0.0015137
0.0014959
0.00146964
0.00142527
0.00136629
0.0012967
0.00121654
0.00110582
0.000913902
0.000636269
0.00027096
0.000519182
0.00069799
0.000807923
0.000884319
0.000947442
0.00100223
0.00105037
0.0010944
0.001141
0.00120115
0.00127682
0.00138098
0.00149337
0.00159479
0.00167631
0.00173679
0.00177732
0.00179818
0.00179937
0.00178011
0.00173878
0.00167917
0.00161169
0.00155196
0.0015162
0.00149576
0.0014701
0.0014315
0.00137725
0.00131051
0.00123285
0.00112606
0.000940116
0.000673475
0.000263867
0.000512571
0.000694319
0.0008079
0.000887625
0.00095371
0.00101175
0.00106354
0.00111042
0.00115547
0.00120383
0.00126567
0.00134569
0.00144785
0.00155147
0.00164092
0.001711
0.00176213
0.00179517
0.00180999
0.00180517
0.00177806
0.00172931
0.00166417
0.00159628
0.00154213
0.00150433
0.0014749
0.00143769
0.00138675
0.00132294
0.0012481
0.00114477
0.000963919
0.000701044
0.000258126
0.000505836
0.000691477
0.000809398
0.000892443
0.000961191
0.00102231
0.00107836
0.00113033
0.00117807
0.00122318
0.00127165
0.00133668
0.00141929
0.00151523
0.00160702
0.00168316
0.00174108
0.00178197
0.00180635
0.00181231
0.00179911
0.00176368
0.00170897
0.00164373
0.00158119
0.00153047
0.00149038
0.0014494
0.00139854
0.00133667
0.00126414
0.00116284
0.000983028
0.000708235
0.000251666
0.000497773
0.000688376
0.000811912
0.000898456
0.000969678
0.00103348
0.00109232
0.00114714
0.00119846
0.00124653
0.0012931
0.00134634
0.00141545
0.00149853
0.00158503