/*--------------------------------*- C++ -*----------------------------------*\
| =========                 |                                                 |
| \\      /  F ield         | OpenFOAM: The Open Source CFD Toolbox           |
|  \\    /   O peration     | Version:  2.0.x                                 |
|   \\  /    A nd           | Web:      www.OpenFOAM.org                      |
|    \\/     M anipulation  |                                                 |
\*---------------------------------------------------------------------------*/
FoamFile
{
    version     2.0;
    format      ascii;
    class       volScalarField;
    location    "900";
    object      omega;
}
// * * * * * * * * * * * * * * * * * * * * * * * * * * * * * * * * * * * * * //

dimensions      [0 0 -1 0 0 0 0];

internalField   nonuniform List<scalar> 
78750
(
1019.55
5.03963
5.53417
5.91129
6.2198
6.47222
6.67806
6.84557
6.98189
7.0919
7.17642
7.24255
7.29319
7.32904
7.35782
7.40404
7.43492
7.45145
7.4482
7.43179
7.40757
7.37586
7.33556
7.29456
7.25243
7.20826
7.16158
7.11155
7.0567
6.99524
6.92406
6.83037
6.66418
6.22071
1089.19
1019.52
4.92342
5.61647
6.24314
6.77272
7.19252
7.51817
7.76846
7.96036
8.10472
8.20854
8.28004
8.32644
8.35602
8.35207
8.3042
8.2408
8.17635
8.11171
8.04824
7.9866
7.92662
7.86505
7.79621
7.72216
7.64179
7.55125
7.45647
7.35637
7.24705
7.12621
6.97925
6.748
6.29615
1090.1
1019.55
5.36961
6.41662
7.20332
7.7588
8.129
8.37267
8.53145
8.63022
8.68113
8.68995
8.67523
8.61843
8.53094
8.43271
8.327
8.21206
8.09202
7.97348
7.86345
7.76184
7.66919
7.59952
7.54678
7.50248
7.46281
7.42309
7.37681
7.31669
7.23477
7.12391
6.97633
6.74086
6.41007
1090.97
1019.79
6.04237
7.21515
7.91545
8.30068
8.52203
8.66107
8.74791
8.7935
8.80231
8.78374
8.72847
8.6447
8.53778
8.41417
8.27398
8.11851
7.9496
7.77226
7.59666
7.43906
7.32552
7.24793
7.191
7.14994
7.12547
7.11347
7.10686
7.0968
7.07317
7.0199
6.89831
6.70416
6.46695
1091.22
1020.01
6.37606
7.46674
8.0877
8.45217
8.68938
8.85424
8.96593
9.03158
9.05409
9.03692
8.97802
8.88136
8.75157
8.59504
8.41683
8.22264
8.0177
7.80643
7.59628
7.40826
7.26323
7.1511
7.05843
6.98358
6.92955
6.89832
6.88772
6.88928
6.8892
6.8676
6.78828
6.64748
6.4641
1091.24
1020.1
6.47295
7.60546
8.25736
8.6267
8.85765
9.01376
9.11657
9.17434
9.19098
9.17155
9.11323
9.02178
8.90246
8.76302
8.60872
8.4435
8.26549
8.0711
7.85734
7.63759
7.44669
7.28616
7.14744
7.02986
6.93636
6.86584
6.81277
6.77898
6.76404
6.74957
6.7012
6.60494
6.46478
1091.31
1020.21
6.58727
7.73344
8.39054
8.76671
9.0052
9.16855
9.27797
9.34123
9.36155
9.34381
9.28261
9.18264
9.0479
8.88552
8.70838
8.51698
8.32346
8.13518
7.95017
7.76357
7.58523
7.43132
7.29275
7.16319
7.04313
6.92925
6.83653
6.77157
6.7204
6.6815
6.6369
6.56869
6.47094
1091.48
1020.32
6.69644
7.87756
8.54508
8.91985
9.15302
9.30941
9.4103
9.4634
9.47147
9.44249
9.3664
9.25133
9.10155
8.92269
8.72117
8.52049
8.32235
8.13087
7.94806
7.77448
7.61674
7.48356
7.36543
7.25455
7.14765
7.03779
6.92111
6.80933
6.7259
6.66921
6.62202
6.57253
6.50984
1091.69
1020.54
6.89993
8.06555
8.71
9.07098
9.29624
9.44642
9.54116
9.58712
9.58611
9.54247
9.44978
9.31419
9.14
8.93471
8.70929
8.47689
8.24066
8.01362
7.80673
7.63492
7.51277
7.42046
7.34002
7.26727
7.19892
7.12082
7.02341
6.90424
6.77651
6.67986
6.62502
6.58425
6.56293
1091.85
1020.79
7.07844
8.20301
8.81896
9.16692
9.3866
9.5332
9.62476
9.66725
9.66206
9.60906
9.51117
9.37039
9.19027
8.97607
8.7359
8.47932
8.21975
7.96528
7.73099
7.53811
7.41365
7.34561
7.30614
7.27412
7.2352
7.18121
7.10399
6.99691
6.86214
6.72883
6.64939
6.61524
6.60764
1091.88
1020.96
7.17179
8.26843
8.87396
9.22252
9.44733
9.60129
9.702
9.75592
9.7645
9.73002
9.65269
9.53446
9.37716
9.18249
8.95325
8.69565
8.41221
8.11513
7.82929
7.59013
7.43373
7.36758
7.34121
7.32621
7.30573
7.26583
7.1987
7.09649
6.95906
6.80964
6.69995
6.65775
6.6442
1091.86
1020.96
7.17528
8.27514
8.89564
9.25073
9.48136
9.64263
9.7527
9.81866
9.84136
9.8279
9.77823
9.6942
9.5768
9.42649
9.24356
9.02905
8.78252
8.50203
8.19582
7.88863
7.62323
7.44373
7.35344
7.32469
7.31306
7.29313
7.25368
7.18073
7.05632
6.90084
6.76931
6.7057
6.67198
1091.84
1020.84
7.11906
8.25595
8.89825
9.27069
9.51444
9.68726
9.80891
9.88782
9.92704
9.93033
9.89875
9.83447
9.73977
9.6167
9.4668
9.29137
9.09253
8.86625
8.60665
8.31416
8.00428
7.7192
7.50365
7.3704
7.30833
7.26871
7.23646
7.18176
7.09631
6.97397
6.84378
6.76375
6.70881
1091.89
1020.75
7.08928
8.24505
8.91023
9.29902
9.5519
9.72978
9.85577
9.9398
9.98668
9.99827
9.97712
9.92502
9.84484
9.73905
9.60917
9.45564
9.27984
9.08475
8.8653
8.61605
8.3345
8.03829
7.76705
7.54116
7.37493
7.28108
7.22534
7.17009
7.09797
7.00792
6.90042
6.82202
6.7609
1092.03
1020.74
7.09423
8.28591
8.97279
9.37109
9.62647
9.80484
9.93086
10.0145
10.0607
10.072
10.0526
10.0009
9.92538
9.83058
9.71781
9.58598
9.4321
9.25509
9.05511
8.83103
8.58131
8.30625
8.03026
7.78113
7.56411
7.39129
7.26552
7.18154
7.10951
7.03721
6.95315
6.88494
6.83524
1092.25
1020.82
7.19732
8.41215
9.09249
9.47703
9.72042
9.88892
10.0058
10.08
10.116
10.1167
10.0893
10.0352
9.9657
9.88211
9.78192
9.66191
9.52031
9.35575
9.16496
8.94545
8.69709
8.42242
8.15018
7.90913
7.69167
7.49998
7.34535
7.22989
7.14609
7.07803
7.00928
6.95302
6.9178
1092.44
1021.01
7.35436
8.5621
9.21838
9.5855
9.8184
9.97902
10.0879
10.1529
10.1783
10.1702
10.1334
10.0819
10.024
9.95939
9.88131
9.78089
9.65191
9.49499
9.3111
9.09575
8.84371
8.5578
8.26899
8.01399
7.7885
7.58855
7.4194
7.28468
7.18904
7.12199
7.06567
7.02184
6.99966
1092.59
1021.23
7.50514
8.6886
9.31779
9.66763
9.89054
10.0439
10.1452
10.2007
10.2138
10.1947
10.1492
10.0967
10.0535
10.0141
9.96611
9.8952
9.78675
9.63424
9.44028
9.21724
8.9556
8.6586
8.35326
8.08174
7.85067
7.65236
7.48279
7.3423
7.24125
7.17396
7.12599
7.09258
7.07831
1092.68
1021.52
7.68102
8.81666
9.40818
9.74122
9.95792
10.1087
10.2071
10.2574
10.2637
10.2345
10.1805
10.1243
10.0699
10.022
9.98076
9.9308
9.86199
9.76544
9.62388
9.41395
9.13129
8.80503
8.46023
8.14004
7.88271
7.67896
7.51445
7.38154
7.28773
7.22746
7.18871
7.16206
7.14372
1092.69
1021.75
7.76622
8.85305
9.43299
9.76467
9.98608
10.1426
10.2458
10.2998
10.3067
10.2723
10.2098
10.1407
10.0748
10.0199
9.97462
9.9271
9.86569
9.77726
9.65654
9.4943
9.28453
8.98911
8.61512
8.25319
7.95314
7.71924
7.5445
7.41573
7.33188
7.281
7.24981
7.22533
7.19584
1092.68
1021.85
7.77763
8.85946
9.4392
9.77734
10.0104
10.1779
10.293
10.3595
10.3781
10.3541
10.2919
10.2015
10.1012
10.0023
9.91479
9.83732
9.77401
9.712
9.62516
9.49411
9.31445
9.07767
8.77224
8.40414
8.07079
7.79614
7.59137
7.45265
7.37492
7.33486
7.31145
7.2869
7.24226
1092.66
1021.85
7.77438
8.85514
9.43514
9.7778
10.0183
10.1955
10.3229
10.4041
10.4394
10.4348
10.3906
10.3089
10.1941
10.0577
9.91838
9.80024
9.69117
9.58628
9.49132
9.39416
9.26248
9.07606
8.82344
8.50892
8.18038
7.89215
7.6613
7.50324
7.42244
7.38846
7.36944
7.3413
7.2789
1092.64
1021.78
7.71286
8.80802
9.41108
9.77039
10.0194
10.2131
10.3553
10.4522
10.507
10.5207
10.4982
10.4404
10.3478
10.2205
10.0616
9.88155
9.70102
9.5449
9.40694
9.26391
9.12126
8.96574
8.77007
8.51353
8.22474
7.96105
7.73089
7.56133
7.47608
7.44551
7.42826
7.39491
7.31607
1092.65
1021.68
7.64879
8.75403
9.37491
9.75103
10.0165
10.2196
10.3743
10.4861
10.5567
10.5859
10.5789
10.5372
10.4633
10.3589
10.2244
10.0596
9.86715
9.656
9.44215
9.23922
9.04963
8.86137
8.65633
8.43061
8.19945
7.98278
7.78157
7.61862
7.5316
7.50162
7.48307
7.44288
7.34889
1092.68
1021.61
7.6007
8.71499
9.35041
9.7374
10.0123
10.2276
10.3949
10.5201
10.6056
10.652
10.6606
10.6334
10.5718
10.4778
10.354
10.2031
10.0269
9.82751
9.61045
9.37826
9.13795
8.89544
8.65106
8.41154
8.19375
7.99531
7.81717
7.67091
7.58888
7.55924
7.5384
7.49271
7.39051
1092.75
1021.58
7.57263
8.6909
9.33728
9.73505
10.0212
10.2429
10.4175
10.5519
10.6487
10.7085
10.7319
10.7204
10.6744
10.5942
10.4811
10.3373
10.1658
9.97033
9.75622
9.52653
9.28175
9.0235
8.75467
8.49025
8.25003
8.03847
7.85805
7.71938
7.64477
7.61687
7.5931
7.5422
7.43302
1092.82
1021.57
7.54589
8.66835
9.32606
9.73703
10.0309
10.2604
10.4437
10.5877
10.695
10.7662
10.8015
10.8019
10.7685
10.7007
10.5999
10.4671
10.3042
10.1133
9.89863
9.66594
9.41511
9.14633
8.86296
8.58347
8.32968
8.10298
7.91078
7.76949
7.69967
7.67477
7.64876
7.59323
7.47921
1092.91
1021.55
7.51681
8.64606
9.32075
9.74068
10.0417
10.279
10.471
10.6249
10.7433
10.827
10.8753
10.8874
10.8646
10.8062
10.7134
10.5881
10.4325
10.2479
10.0369
9.80444
9.55033
9.27411
8.97919
8.68517
8.41762
8.17941
7.97588
7.82577
7.75403
7.73023
7.70348
7.64604
7.5316
1093.01
1021.57
7.51358
8.64411
9.32514
9.75277
10.061
10.3051
10.5042
10.6661
10.7938
10.8879
10.9478
10.9734
10.9638
10.9162
10.8299
10.7092
10.558
10.3772
10.1682
9.93407
9.67481
9.3895
9.08193
8.77228
8.49082
8.24411
8.03557
7.8831
7.81136
7.7883
7.76054
7.70097
7.58346
1093.08
1021.63
7.53921
8.66528
9.34201
9.76872
10.0799
10.3285
10.5327
10.6996
10.8323
10.9316
10.9984
11.034
11.038
11.0104
10.9438
10.8372
10.6918
10.5154
10.3086
10.0727
9.8073
9.51141
9.19051
8.86093
8.55589
8.2958
8.08306
7.93251
7.86486
7.84425
7.81624
7.75455
7.63104
1093.12
1021.71
7.57792
8.69391
9.36352
9.788
10.1003
10.3514
10.559
10.7303
10.8685
10.9753
11.0512
11.0978
11.1151
11.1023
11.0553
10.9704
10.8438
10.6742
10.4678
10.2298
9.95891
9.65286
9.31545
8.96096
8.62689
8.34697
8.12621
7.97808
7.91638
7.89939
7.87126
7.80657
7.6731
1093.13
1021.78
7.60452
8.71241
9.37706
9.80028
10.1146
10.3693
10.5812
10.7572
10.9008
11.0145
11.0993
11.157
11.1879
11.1906
11.1646
11.102
11
10.8534
10.6582
10.4158
10.134
9.8156
9.46038
9.07909
8.71201
8.40418
8.16739
8.01855
7.96365
7.95165
7.9236
7.85492
7.70918
1093.14
1021.86
7.64455
8.74123
9.39446
9.81279
10.1265
10.3831
10.5977
10.7769
10.9241
11.0408
11.1276
11.1868
11.2207
11.2297
11.2137
11.1678
11.0894
10.973
10.8127
10.6033
10.3371
10.0098
9.63445
9.2273
8.82893
8.49005
8.22717
8.06502
8.00946
8.00094
7.97361
7.90223
7.7488
1093.18
1021.95
7.684
8.76538
9.40625
9.8193
10.1324
10.3916
10.6101
10.7925
10.9418
11.0595
11.1467
11.2063
11.2411
11.2524
11.2408
11.2032
11.1373
11.0385
10.9018
10.7228
10.4928
10.1996
9.83114
9.3933
8.96091
8.59032
8.30005
8.11919
8.0566
8.04896
8.02257
7.9492
7.78705
1093.19
1022.03
7.71492
8.78221
9.41181
9.82015
10.1331
10.3937
10.614
10.8011
10.9543
11.0757
11.1657
11.2268
11.2617
11.2721
11.2597
11.2227
11.16
11.068
10.9426
10.78
10.5716
10.3064
9.97048
9.55478
9.0923
8.68229
8.36629
8.17457
8.10843
8.09919
8.07064
7.99307
7.8171
1093.16
1022.09
7.73617
8.79156
9.41264
9.81994
10.1327
10.3924
10.6142
10.8037
10.9649
11.0935
11.19
11.2563
11.2947
11.3068
11.2944
11.2567
11.1937
11.1029
10.9813
10.8261
10.6286
10.3782
10.062
9.66975
9.2191
8.77462
8.42889
8.22445
8.15601
8.147
8.11613
8.03188
7.83495
1093.08
1022.13
7.74882
8.79421
9.40795
9.80875
10.1201
10.3837
10.6108
10.8045
10.9675
11.1032
11.207
11.2806
11.325
11.3416
11.3317
11.2951
11.232
11.1414
11.0214
10.8701
10.6796
10.4396
10.1378
9.765
9.33429
8.88689
8.50185
8.28133
8.20667
8.19364
8.15855
8.06724
7.85237
1093.06
1022.16
7.75904
8.79463
9.39869
9.79469
10.1036
10.3668
10.5964
10.7961
10.965
11.1054
11.2198
11.303
11.3566
11.3815
11.3783
11.3473
11.2882
11.2004
11.0835
10.9363
10.7537
10.5276
10.2463
9.90295
9.50395
9.05483
8.61541
8.3422
8.25599
8.24034
8.20033
8.10165
7.87429
1093.08
1022.2
7.77268
8.79729
9.39125
9.78121
10.0869
10.349
10.5796
10.7829
10.9592
11.1065
11.2255
11.3178
11.3797
11.4129
11.4172
11.3938
11.3401
11.2564
11.1424
10.9973
10.8189
10.6036
10.3458
10.043
9.69526
9.28247
8.82628
8.46533
8.31517
8.28485
8.2428
8.14172
7.90922
1093.14
1022.24
7.78721
8.79821
9.38109
9.76401
10.0656
10.3261
10.5576
10.764
10.9457
11.1008
11.2254
11.3247
11.4004
11.4442
11.4582
11.443
11.3968
11.319
11.2082
11.062
10.878
10.655
10.3918
10.0921
9.76442
9.39246
8.97997
8.61337
8.41098
8.34282
8.28631
8.17727
7.9283
1093.1
1022.28
7.80082
8.79851
9.36972
9.74501
10.0416
10.2989
10.5293
10.7369
10.9226
11.0847
11.2203
11.3269
11.4056
11.4607
11.4852
11.4798
11.444
11.3766
11.2761
11.1376
10.9558
10.7251
10.4426
10.1155
9.76699
9.3973
9.0191
8.70143
8.50536
8.41339
8.33649
8.21128
7.93777
1093.04
1022.32
7.81068
8.79528
9.35351
9.72063
10.0115
10.265
10.4931
10.7007
10.889
11.0565
11.2002
11.3179
11.4072
11.4688
11.5036
11.5079
11.4836
11.428
11.3421
11.2222
11.0651
10.8579
10.5887
10.2584
9.88004
9.4608
9.05518
8.74541
8.56689
8.47162
8.38283
8.24643
7.96067
1093.1
1022.36
7.81783
8.78843
9.33602
9.69545
9.98018
10.2285
10.4531
10.6592
10.8485
11.0199
11.1705
11.2974
11.3977
11.4678
11.5095
11.5238
11.5067
11.4573
11.3766
11.2622
11.1129
10.9319
10.7145
10.4524
10.135
9.73507
9.27934
8.88682
8.65022
8.53035
8.43221
8.2919
8.01055
1093.25
1022.41
7.82157
8.78024
9.31652
9.66739
9.94509
10.1877
10.4077
10.6108
10.7994
10.9731
11.1294
11.2646
11.375
11.4572
11.5085
11.5281
11.5168
11.4703
11.3882
11.269
11.1158
10.9343
10.7291
10.5007
10.2348
9.89863
9.4815
9.07271
8.78545
8.62429
8.50212
8.34378
8.04059
1093.24
1022.42
7.82159
8.76677
9.29349
9.6361
9.90703
10.1433
10.3571
10.5547
10.7401
10.9141
11.0748
11.2181
11.3391
11.4332
11.497
11.5282
11.5282
11.4887
11.4052
11.2744
11.0995
10.8884
10.6516
10.4074
10.16
9.87365
9.52862
9.17788
8.90074
8.71679
8.56822
8.37948
8.02464
1092.96
1022.41
7.8098
8.74817
9.26704
9.60295
9.86747
10.0969
10.3032
10.4934
10.6725
10.8432
11.0053
11.155
11.2866
11.3945
11.4747
11.5244
11.5407
11.5273
11.4637
11.344
11.1627
10.9245
10.6437
10.3478
10.059
9.78088
9.50471
9.22088
8.97599
8.78654
8.62332
8.41622
8.02505
1092.88
1022.39
7.79885
8.73044
9.24161
9.57083
9.82927
10.052
10.2506
10.4318
10.6021
10.7661
10.9259
11.0785
11.2177
11.337
11.432
11.5004
11.5407
11.5486
11.5243
11.4464
11.2965
11.0745
10.7862
10.4485
10.0926
9.77762
9.49696
9.2496
9.03803
8.85356
8.68099
8.45758
8.03474
1092.93
1022.38
7.79275
8.71215
9.21569
9.53943
9.7927
10.0091
10.1993
10.3704
10.5294
10.683
10.8361
10.9872
11.1296
11.2559
11.361
11.4429
11.5021
11.5357
11.5384
11.5065
11.4296
11.2829
11.0614
10.7683
10.3897
9.94882
9.57036
9.297
9.09402
8.91277
8.73502
8.51368
8.12117
1093.33
1022.43
7.79294
8.69707
9.19289
9.51154
9.76048
9.97089
10.1528
10.3131
10.4595
10.5994
10.7403
10.8846
11.0253
11.1536
11.2626
11.3502
11.4177
11.4655
11.4938
11.4993
11.4756
11.407
11.2848
11.0898
10.7889
10.3673
9.88937
9.48456
9.20397
8.99739
8.81219
8.59434
8.2357
1093.71
1022.52
7.79333
8.68175
9.17068
9.48547
9.73107
9.93657
10.1109
10.2601
10.3915
10.5144
10.6396
10.7705
10.9031
11.0275
11.1344
11.2198
11.2842
11.3301
11.3621
11.384
11.3951
11.3875
11.3416
11.2354
11.03
10.69
10.2309
9.75684
9.38235
9.11609
8.906
8.6721
8.3068
1093.74
1022.6
7.79191
8.66162
9.14551
9.45872
9.70323
9.90666
10.0757
10.2157
10.3339
10.4393
10.5432
10.6542
10.7733
10.8892
10.9892
11.0664
11.1192
11.151
11.1696
11.1853
11.2072
11.2337
11.2451
11.2011
11.0433
10.7664
10.376
9.91992
9.53167
9.24131
9.00446
8.73701
8.30832
1093.47
1022.61
7.76391
8.62996
9.11567
9.42996
9.67479
9.87814
10.0454
10.1793
10.2851
10.3719
10.454
10.5435
10.6456
10.7506
10.8429
10.9097
10.9448
10.9512
10.9393
10.9254
10.9306
10.9678
11.0245
11.0404
10.9586
10.7345
10.3788
9.98593
9.62106
9.33034
9.07599
8.76462
8.23936
1092.91
1022.57
7.7195
8.59076
9.08063
9.39852
9.64682
9.85295
10.0216
10.1539
10.2534
10.3278
10.3913
10.4578
10.5369
10.628
10.7147
10.7772
10.7981
10.7755
10.7232
10.6588
10.6183
10.6263
10.6896
10.731
10.6938
10.5455
10.2963
9.97531
9.65343
9.37895
9.1151
8.7636
8.1195
1092.51
1022.45
7.66168
8.54384
9.04042
9.3637
9.61747
9.82956
10.0041
10.14
10.239
10.3064
10.3516
10.3967
10.4537
10.5295
10.6159
10.6896
10.7223
10.7051
10.634
10.5215
10.3992
10.3389
10.3713
10.4584
10.4916
10.4259
10.2424
9.97832
9.70057
9.42979
9.15366
8.7745
8.10099
1092.39
1022.29
7.60069
8.49491
8.99885
9.32833
9.58839
9.80776
9.99006
10.1334
10.2376
10.3049
10.344
10.368
10.4014
10.4577
10.5397
10.6306
10.6958
10.7069
10.6447
10.5159
10.341
10.1633
10.0523
10.0488
10.1219
10.1696
10.1133
9.94066
9.69222
9.434
9.16539
8.79554
8.11077
1092.41
1022.14
7.54396
8.44585
8.95749
9.29359
9.56004
9.78695
9.97792
10.1308
10.2407
10.3111
10.3476
10.3625
10.3706
10.3971
10.4598
10.5581
10.6639
10.7418
10.7714
10.7172
10.5788
10.3762
10.1515
9.99087
9.90142
9.89722
9.89738
9.83231
9.68011
9.45486
9.20351
8.85915
8.20903
1092.85
1022.09
7.51247
8.41188
8.92661
9.26758
9.5393
9.77257
9.97051
10.1307
10.2512
10.3293
10.3663
10.3723
10.3636
10.3611
10.3884
10.467
10.5862
10.718
10.8296
10.8974
10.8975
10.8191
10.6352
10.351
10.0686
9.89954
9.84471
9.78239
9.6774
9.50953
9.28482
8.97092
8.41828
1093.74
1022.1
7.50066
8.38706
8.90132
9.24598
9.52261
9.76136
9.96612
10.1347
10.2621
10.3438
10.3808
10.3794
10.3506
10.3149
10.3002
10.3345
10.4353
10.5867
10.7607
10.9254
11.0459
11.0959
11.0626
10.9108
10.6474
10.3041
9.98855
9.80278
9.67791
9.51937
9.32403
9.06391
8.63122
1094.5
1022.23
7.51086
8.37524
8.88569
9.23254
9.51296
9.7557
9.96548
10.1393
10.2724
10.3597
10.398
10.3915
10.3482
10.2729
10.2042
10.1879
10.2408
10.3841
10.5893
10.8161
11.0213
11.1702
11.2539
11.2392
11.1064
10.8295
10.4554
10.093
9.81961
9.60863
9.40447
9.15644
8.7566
1094.57
1022.36
7.51268
8.35934
8.86556
9.2138
9.49829
9.74606
9.96277
10.1447
10.2864
10.3816
10.4235
10.4119
10.3515
10.2563
10.1363
10.0244
10.008
10.1096
10.3203
10.59
10.8727
11.1159
11.2718
11.3175
11.2347
11.007
10.6623
10.2834
9.96355
9.71158
9.48317
9.2073
8.75334
1094.03
1022.39
7.49266
8.32872
8.83712
9.18885
9.47721
9.72971
9.9536
10.1452
10.2999
10.4089
10.463
10.4593
10.3982
10.2836
10.1309
9.97342
9.84552
9.8253
9.9845
10.2724
10.6311
10.9698
11.2045
11.2802
11.2102
10.9922
10.6643
10.3106
10.0057
9.75557
9.51379
9.19072
8.58376
1093.05
1022.36
7.45714
8.2984
8.80906
9.16268
9.454
9.71066
9.94056
10.1414
10.3081
10.4333
10.5107
10.5284
10.4857
10.3778
10.208
10.0006
9.81527
9.71948
9.73026
9.90367
10.2262
10.5972
10.8916
11.0337
11.0354
10.885
10.6262
10.3279
10.0488
9.79438
9.52478
9.13509
8.38644
1092.54
1022.22
7.38864
8.24623
8.76571
9.12429
9.42007
9.68231
9.91948
10.131
10.3116
10.4593
10.5641
10.6152
10.6139
10.5526
10.4244
10.2309
10.0012
9.78985
9.69925
9.74086
9.93732
10.2163
10.4858
10.6909
10.7753
10.7347
10.5668
10.326
10.0681
9.81051
9.53188
9.13317
8.36873
1092.46
1022.07
7.33932
8.20889
8.73264
9.09338
9.39141
9.65673
9.8983
10.118
10.3105
10.4719
10.5971
10.681
10.7165
10.7052
10.6374
10.5009
10.2849
10.0148
9.77267
9.66653
9.71673
9.90645
10.15
10.3708
10.5111
10.5372
10.4476
10.2712
10.0595
9.81192
9.53945
9.14569
8.38095
1092.55
1021.94
7.28779
8.1671
8.69691
9.06214
9.36462
9.63478
9.88143
10.1084
10.3101
10.4842
10.6251
10.7301
10.7974
10.8268
10.8194
10.7671
10.648
10.4418
10.1543
9.86152
9.69515
9.68794
9.79427
9.97164
10.1675
10.3056
10.3311
10.2499
10.0664
9.84308
9.58486
9.21856
8.5101
1093.18
1021.9
7.27043
8.14785
8.67543
9.04084
9.34535
9.61861
9.86887
10.1008
10.3091
10.4912
10.642
10.7596
10.8434
10.893
10.9142
10.911
10.8759
10.7901
10.6325
10.4071
10.158
9.9334
9.81105
9.81898
9.88059
9.99157
10.0955
10.123
10.0535
9.87514
9.64035
9.30913
8.70199
1093.87
1021.9
7.26148
8.12855
8.65376
9.02017
9.32785
9.60564
9.86107
10.0982
10.313
10.5002
10.6566
10.7802
10.8713
10.9303
10.961
10.9728
10.966
10.9366
10.8731
10.7632
10.6142
10.4263
10.2185
10.0211
9.93057
9.95745
9.99582
10.019
9.99605
9.87766
9.67891
9.38822
8.86288
1094.35
1021.96
7.26278
8.11871
8.63747
9.00251
9.31189
9.5932
9.85321
10.095
10.315
10.5079
10.6692
10.7965
10.8903
10.9523
10.9821
10.9889
10.9815
10.9627
10.936
10.9007
10.8488
10.7593
10.6181
10.4349
10.2443
10.081
10.0153
10.0123
9.98665
9.87677
9.7044
9.44834
8.96245
1094.42
1022.02
7.26403
8.1056
8.6171
8.98071
9.29227
9.57783
9.8434
10.0909
10.3151
10.5146
10.68
10.8097
10.9034
10.9628
10.989
10.9864
10.9592
10.925
10.8953
10.8775
10.8689
10.8495
10.7925
10.6801
10.5191
10.3398
10.1884
10.0847
10.0087
9.89393
9.72863
9.47892
8.96778
1094.22
1022.05
7.25983
8.08728
8.59254
8.95466
9.26769
9.55696
9.82817
10.0828
10.315
10.517
10.69
10.8256
10.9232
10.9838
11.0078
10.9934
10.9476
10.8796
10.8149
10.7805
10.7866
10.8059
10.7971
10.7422
10.6417
10.4944
10.3334
10.1912
10.0659
9.92226
9.74544
9.47748
8.92203
1093.77
1022.05
7.24283
8.06241
8.56298
8.9237
9.23807
9.5309
9.80752
10.0689
10.308
10.519
10.6989
10.8421
10.9474
11.0143
11.0415
11.024
10.9624
10.8692
10.7657
10.6833
10.6624
10.6881
10.7211
10.7211
10.6676
10.5758
10.4393
10.2873
10.1323
9.96456
9.7679
9.47005
8.83658
1093.48
1022.02
7.21797
8.03265
8.52956
8.88903
9.20442
9.50057
9.7829
10.0506
10.2965
10.5149
10.7009
10.8558
10.9729
11.0521
11.0909
11.0811
11.0174
10.9056
10.7644
10.6305
10.5539
10.5458
10.5847
10.6284
10.6421
10.5898
10.4971
10.3584
10.1938
10.0097
9.79507
9.47138
8.8103
1093.42
1021.98
7.18866
8.00026
8.49387
8.85179
9.16753
9.46609
9.75331
10.0258
10.2777
10.504
10.7007
10.865
10.9961
11.0919
11.1478
11.1559
11.1073
11.0025
10.8516
10.6835
10.5492
10.4761
10.4638
10.5028
10.5547
10.568
10.5088
10.3974
10.2385
10.0487
9.82406
9.48714
8.81071
1093.46
1021.94
7.16103
7.96847
8.45873
8.81504
9.13081
9.43114
9.72195
9.99802
10.2547
10.4877
10.6929
10.8658
11.0105
11.1209
11.1931
11.2202
11.1946
11.1125
10.979
10.8133
10.6494
10.5165
10.4529
10.4416
10.4723
10.5064
10.4962
10.4155
10.2745
10.0886
9.86129
9.52221
8.8505
1093.66
1021.91
7.1347
7.93718
8.42374
8.77808
9.09355
9.39553
9.68745
9.96528
10.2254
10.4643
10.6778
10.8615
11.0144
11.1402
11.2266
11.2694
11.2624
11.2016
11.0912
10.9457
10.7862
10.6285
10.5008
10.4442
10.4538
10.4784
10.4804
10.4252
10.3019
10.1244
9.90088
9.5673
8.91351
1093.85
1021.88
7.11072
7.90748
8.3901
8.74225
9.05672
9.35887
9.65077
9.92896
10.1904
10.4326
10.6522
10.8455
11.0114
11.146
11.2472
11.3047
11.3138
11.2719
11.1811
11.0556
10.9093
10.7521
10.6077
10.5076
10.4699
10.4805
10.4809
10.4362
10.3251
10.1561
9.93832
9.61013
8.96516
1093.93
1021.86
7.08781
7.87831
8.35708
8.70747
9.02137
9.32345
9.61411
9.8909
10.1518
10.3948
10.6176
10.8173
10.9933
11.1401
11.2509
11.323
11.3482
11.3232
11.2509
11.143
11.0066
10.8517
10.7011
10.5848
10.525
10.5079
10.4999
10.4554
10.3488
10.1848
9.97061
9.64446
8.99889
1093.94
1021.84
7.06585
7.84924
8.3241
8.6731
8.98704
9.28868
9.57796
9.85269
10.1114
10.3533
10.5767
10.7797
10.9623
11.1181
11.241
11.3256
11.3682
11.3627
11.3109
11.2212
11.0955
10.942
10.7841
10.6556
10.5819
10.5528
10.534
10.484
10.3771
10.2149
10.0016
9.67335
9.01893
1093.94
1021.84
7.04654
7.82099
8.29197
8.64007
8.95459
9.25578
9.54373
9.81643
10.0726
10.3116
10.533
10.736
10.9212
11.0823
11.2139
11.3117
11.3712
11.3881
11.3647
11.3007
11.1931
11.0465
10.882
10.7367
10.6424
10.5975
10.5697
10.5162
10.4093
10.248
10.0349
9.70601
9.05035
1094.02
1021.84
7.02738
7.79203
8.25949
8.60736
8.9232
9.22449
9.51152
9.78246
10.0361
10.272
10.4898
10.6895
10.8719
11.0323
11.1668
11.2728
11.3479
11.3889
11.396
11.3668
11.2893
11.1634
11.0043
10.8467
10.7264
10.6547
10.6097
10.5495
10.442
10.2822
10.0711
9.74492
9.09292
1094.11
1021.84
7.00673
7.76151
8.22618
8.57445
8.89183
9.19371
9.48067
9.75096
10.0033
10.237
10.4515
10.6465
10.8224
10.976
11.1052
11.2098
11.29
11.3464
11.38
11.3826
11.3455
11.257
11.1231
10.9723
10.8368
10.7383
10.6689
10.5942
10.4808
10.3197
10.1068
9.77532
9.11487
1094.11
1021.84
6.98238
7.72862
8.19141
8.54105
8.85931
9.16186
9.4493
9.71985
9.97222
10.2056
10.4189
10.6109
10.7803
10.9244
11.0421
11.1355
11.208
11.2662
11.3155
11.347
11.3405
11.2852
11.1891
11.0652
10.9371
10.8275
10.7385
10.646
10.5218
10.3548
10.1366
9.79543
9.11389
1094.01
1021.82
6.94869
7.69045
8.15257
8.50359
8.82305
9.12655
9.41467
9.68578
9.93893
10.1736
10.3882
10.5807
10.7475
10.8848
10.9917
11.0705
11.1295
11.1777
11.2253
11.2658
11.2839
11.2657
11.2015
11.111
11.0026
10.8958
10.7964
10.6899
10.5552
10.3823
10.1572
9.80311
9.09609
1093.88
1021.78
6.91091
7.65059
8.11261
8.46477
8.7853
9.08981
9.37864
9.65024
9.90418
10.1405
10.3581
10.5538
10.722
10.8568
10.9561
11.0259
11.0736
11.1096
11.1461
11.1821
11.2098
11.216
11.1914
11.1317
11.0504
10.9538
10.8495
10.7312
10.5861
10.4052
10.1721
9.80574
9.07551
1093.78
1021.72
6.8674
7.6075
8.07041
8.4234
8.74508
9.05077
9.34031
9.61208
9.86627
10.1039
10.3245
10.5252
10.6981
10.836
10.9385
11.0071
11.048
11.072
11.0897
11.106
11.1234
11.1378
11.141
11.1225
11.0702
10.9938
10.8939
10.7699
10.6168
10.4292
10.191
9.81881
9.07595
1093.76
1021.66
6.82253
7.5634
8.02698
8.38088
8.70405
9.01133
9.30183
9.57373
9.8277
10.0659
10.2894
10.4953
10.675
10.8237
10.937
11.0139
11.0593
11.0818
11.0883
11.0846
11.0763
11.0726
11.0778
11.0793
11.0603
11.0082
10.9221
10.8002
10.6433
10.4513
10.2105
9.83623
9.08704
1093.79
1021.59
6.78158
7.52106
7.98432
8.33901
8.66392
8.97315
9.26488
9.53672
9.78945
10.0263
10.2501
10.4589
10.648
10.8125
10.9458
11.0434
11.1064
11.1393
11.1427
11.1212
11.0906
11.0692
11.0586
11.0582
11.0504
11.0134
10.9407
10.8262
10.6714
10.4782
10.2369
9.86693
9.13103
1093.95
1021.54
6.74581
7.48124
7.94319
8.29858
8.62559
8.93745
9.23129
9.50373
9.75508
9.98901
10.2099
10.4178
10.6133
10.7924
10.9478
11.0729
11.1642
11.2211
11.241
11.2241
11.1772
11.1167
11.0754
11.0597
11.0515
11.0246
10.965
10.8601
10.7092
10.5167
10.2768
9.91395
9.1957
1094.17
1021.52
6.71867
7.44541
7.9043
8.25996
8.58921
8.90421
9.20093
9.47474
9.72491
9.95476
10.1695
10.3728
10.5686
10.7564
10.9299
11.0812
11.2042
11.2923
11.3401
11.3436
11.3058
11.2354
11.1615
11.1094
11.0778
11.048
10.9941
10.8971
10.7511
10.5604
10.3225
9.96656
9.26862
1094.41
1021.52
6.69567
7.41192
7.86703
8.22295
8.55485
8.87382
9.17473
9.45146
9.7018
9.92813
10.1355
10.3301
10.5192
10.7059
10.8871
11.0547
11.2016
11.3209
11.4043
11.4416
11.4296
11.3713
11.2877
11.2054
11.1437
11.0977
11.041
10.9466
10.8032
10.6136
10.3766
10.0244
9.3429
1094.58
1021.54
6.67785
7.38012
7.83017
8.18584
8.52038
8.84391
9.15022
9.43142
9.68353
9.90764
10.1083
10.293
10.4712
10.6493
10.8279
11.0018
11.1652
11.309
11.4192
11.4901
11.5139
11.4878
11.4214
11.3352
11.2524
11.1825
11.1095
11.0068
10.8595
10.6674
10.4273
10.0708
9.38747
1094.6
1021.56
6.65919
7.3474
7.79223
8.14739
8.48459
8.81341
9.1266
9.41434
9.67036
9.89374
10.0881
10.261
10.4244
10.5873
10.7548
10.9259
11.0977
11.2591
11.3956
11.4913
11.541
11.5497
11.515
11.4449
11.3612
11.2784
11.1904
11.0757
10.9202
10.7217
10.4733
10.1025
9.39201
1094.52
1021.57
6.63457
7.31167
7.75161
8.10558
8.44481
8.77917
9.10073
9.39785
9.66203
9.89013
10.0841
10.2478
10.3924
10.5338
10.6818
10.8398
11.0092
11.1766
11.3268
11.4469
11.5277
11.5608
11.5615
11.5222
11.4527
11.3686
11.2692
11.141
10.9752
10.7685
10.5097
10.1216
9.37975
1094.35
1021.56
6.60467
7.27397
7.70913
8.06082
8.40095
8.74029
9.07058
9.37856
9.65351
9.88982
10.0867
10.2467
10.3819
10.5042
10.6266
10.7627
10.918
11.0795
11.2331
11.3669
11.4719
11.5429
11.5667
11.5578
11.5147
11.4391
11.3355
11.1987
11.024
10.808
10.5381
10.1287
9.34528
1094.19
1021.52
6.56712
7.23401
7.66474
8.01252
8.3518
8.695
9.03409
9.35486
9.64492
9.89638
10.1029
10.2654
10.3935
10.5009
10.6025
10.7127
10.8438
10.9866
11.1298
11.2639
11.3808
11.4758
11.5379
11.5559
11.5336
11.4752
11.3791
11.243
11.0662
10.8462
10.5699
10.1489
9.3429
1094.13
1021.47
6.52971
7.19626
7.62216
7.96342
8.29957
8.64451
8.99064
9.32353
9.62974
9.89962
10.1244
10.3004
10.435
10.539
10.627
10.7172
10.822
10.9349
11.0523
11.1705
11.2849
11.392
11.4774
11.5265
11.5318
11.493
11.4084
11.2761
11.1
10.8804
10.603
10.1772
9.35729
1094.15
1021.4
6.49405
7.16131
7.58148
7.9144
8.2453
8.58959
8.94058
9.28419
9.60668
9.89748
10.1441
10.3405
10.4919
10.6058
10.6941
10.7737
10.8557
10.9432
11.0351
11.1238
11.2138
11.3109
11.4025
11.4729
11.5056
11.4895
11.4208
11.2997
11.1299
10.9137
10.6372
10.2126
9.39346
1094.26
1021.35
6.4668
7.13406
7.54724
7.87009
8.19337
8.53444
8.88774
9.23985
9.57705
9.88831
10.1593
10.3805
10.5567
10.6927
10.7965
10.8812
10.9541
11.0175
11.0748
11.1378
11.2109
11.2857
11.3608
11.4285
11.4721
11.476
11.4261
11.3194
11.1594
10.9503
10.681
10.266
9.45939
1094.44
1021.3
6.45058
7.11517
7.51953
7.83142
8.14397
8.47913
8.83223
9.19061
9.54068
9.87034
10.164
10.4103
10.6137
10.7784
10.9096
11.0152
11.0982
11.1594
11.2021
11.2338
11.2624
11.3058
11.3639
11.4271
11.4704
11.4771
11.4397
11.3429
11.1908
10.9884
10.7278
10.3276
9.54319
1094.71
1021.28
6.44887
7.10722
7.49932
7.7986
8.09841
8.42553
8.77621
9.139
9.50058
9.84659
10.1609
10.4304
10.6577
10.8487
11.007
11.1372
11.2405
11.3156
11.3631
11.388
11.4009
11.4126
11.4287
11.4522
11.4816
11.4915
11.461
11.3735
11.2293
11.0334
10.781
10.395
9.63499
1094.96
1021.28
6.45541
7.10693
7.48572
7.77191
8.05751
8.37365
8.71839
9.0825
9.4535
9.81485
10.1491
10.4416
10.6937
10.9087
11.0899
11.2412
11.3648
11.4583
11.5197
11.552
11.5642
11.5633
11.5553
11.5471
11.5416
11.5309
11.4948
11.4111
11.2719
11.0812
10.8343
10.4568
9.71602
1095.11
1021.31
6.48339
7.12204
7.48332
7.75167
8.02098
8.32308
8.65839
9.02075
9.39866
9.77331
10.1262
10.4418
10.717
10.9531
11.1537
11.3251
11.469
11.5811
11.6589
11.7046
11.7261
11.7267
11.7117
11.6861
11.6563
11.6207
11.5656
11.471
11.3267
11.1341
10.8857
10.5056
9.7597
1095.13
1021.35
6.52064
7.14226
7.4844
7.73753
7.9912
8.27497
8.59471
8.95034
9.33271
9.72017
10.0918
10.4288
10.7256
10.9831
11.2047
11.3955
11.5555
11.6812
11.7718
11.8301
11.862
11.869
11.8549
11.8235
11.7804
11.7263
11.6522
11.5428
11.3889
11.1897
10.9339
10.5436
9.78135
1095.1
1021.42
6.5718
7.17301
7.49589
7.73289
7.96862
8.22807
8.52376
8.86431
9.2454
9.6439
10.0359
10.3979
10.7219
11.0054
11.2497
11.4582
11.6324
11.7703
11.8725
11.9433
11.9861
12.0019
11.9928
11.9614
11.9116
11.8439
11.7526
11.627
11.4605
11.2504
10.9817
10.5733
9.78155
1095.03
1021.5
6.62649
7.20362
7.50931
7.73324
7.95118
8.18196
8.44491
8.7597
9.12944
9.53369
9.94576
10.3355
10.6915
11.0062
11.2768
11.5048
11.6932
11.8419
11.9534
12.0347
12.0873
12.1125
12.1114
12.0853
12.0354
11.9609
11.8573
11.7179
11.5385
11.3153
11.0305
10.6002
9.77578
1094.96
1021.6
6.68191
7.23339
7.52661
7.74359
7.94711
8.14375
8.36543
8.63931
8.98052
9.37711
9.80283
10.2262
10.6218
10.9755
11.2795
11.5347
11.7412
11.9035
12.0267
12.1177
12.1785
12.2109
12.2161