/*--------------------------------*- C++ -*----------------------------------*\
| =========                 |                                                 |
| \\      /  F ield         | OpenFOAM: The Open Source CFD Toolbox           |
|  \\    /   O peration     | Version:  2.3.x                                 |
|   \\  /    A nd           | Web:      www.OpenFOAM.org                      |
|    \\/     M anipulation  |                                                 |
\*---------------------------------------------------------------------------*/
FoamFile
{
    version     2.0;
    format      ascii;
    class       volScalarField;
    location    "900";
    object      omega;
}
// * * * * * * * * * * * * * * * * * * * * * * * * * * * * * * * * * * * * * //

dimensions      [0 0 -1 0 0 0 0];

internalField   nonuniform List<scalar> 
78750
(
349.715
15.7491
16.221
16.417
16.5568
16.7211
16.8974
17.0496
17.1855
17.2996
17.3929
17.469
17.5317
17.5814
17.6181
17.6798
17.7544
17.8122
17.8442
17.8458
17.8425
17.8223
17.7926
17.7559
17.7126
17.6622
17.6047
17.5378
17.4626
17.3786
17.2812
17.1635
17.0191
16.7096
373.6
512.353
5.49934
5.86094
6.04796
6.30845
6.66305
7.02271
7.35998
7.6461
7.8765
8.05764
8.19906
8.30707
8.38519
8.44276
8.44314
8.42405
8.37495
8.3192
8.26119
8.203
8.1448
8.08585
8.0264
7.96647
7.90587
7.84761
7.79032
7.71992
7.64287
7.55453
7.44252
7.26586
6.92344
548.644
511.882
4.84444
5.42317
6.00943
6.60731
7.17383
7.62835
7.95903
8.18783
8.34524
8.45132
8.51593
8.54779
8.5481
8.53235
8.49972
8.44717
8.38115
8.31017
8.23441
8.15338
8.06774
7.97868
7.88724
7.79577
7.70904
7.62539
7.55069
7.49693
7.45926
7.43023
7.37886
7.22873
6.95471
549.164
511.927
5.44157
6.44824
7.27321
7.86733
8.20378
8.40838
8.5413
8.62734
8.68078
8.70765
8.71117
8.7012
8.6686
8.61628
8.54041
8.45713
8.36606
8.26665
8.15962
8.04699
7.9307
7.81261
7.69558
7.58251
7.4719
7.37173
7.29446
7.24013
7.21039
7.20558
7.20089
7.12345
6.95819
549.354
512.079
5.76252
6.85
7.5476
7.97075
8.24561
8.43663
8.57257
8.66671
8.72781
8.75901
8.76123
8.74386
8.6953
8.62541
8.53727
8.43181
8.31563
8.19455
8.06774
7.93473
7.79965
7.66302
7.52549
7.38571
7.25583
7.1515
7.07255
7.02192
7.00447
7.01379
7.03568
7.01851
6.91787
549.355
512.433
6.28436
7.33742
7.96783
8.32666
8.54977
8.70368
8.81227
8.88265
8.9164
8.91635
8.89079
8.83366
8.75292
8.6511
8.53229
8.40583
8.27397
8.13863
8.00669
7.88059
7.7539
7.62451
7.48699
7.34492
7.20907
7.07928
6.96374
6.88667
6.85911
6.8759
6.92252
6.93479
6.8604
549.225
512.588
6.38225
7.39983
8.00308
8.3552
8.57651
8.72789
8.83478
8.90455
8.94102
8.94545
8.92154
8.86649
8.78518
8.68021
8.55476
8.41601
8.27442
8.13618
8.00429
7.88223
7.76528
7.65166
7.53526
7.40964
7.27735
7.14057
6.99971
6.87341
6.7956
6.78824
6.82522
6.84489
6.77257
549.052
512.834
6.59134
7.55815
8.13383
8.47496
8.69919
8.8581
8.96889
9.04101
9.0774
9.07947
9.04983
8.98777
8.89683
8.78213
8.64822
8.50105
8.34862
8.19606
8.04971
7.91228
7.79167
7.6828
7.57936
7.47807
7.37292
7.25282
7.10908
6.9446
6.80961
6.75371
6.76577
6.77576
6.7008
548.994
512.86
6.61874
7.58888
8.15926
8.49475
8.71513
8.87409
8.99097
9.07247
9.12106
9.13701
9.12158
9.07495
8.99728
8.88901
8.75219
8.59158
8.41623
8.23416
8.06129
7.905
7.77097
7.65825
7.56018
7.47339
7.38658
7.28679
7.16224
7.00969
6.848
6.75642
6.73512
6.72959
6.65574
548.981
512.868
6.62297
7.60731
8.19653
8.54691
8.77972
8.95029
9.07797
9.1698
9.22883
9.2561
9.25407
9.22358
9.16584
9.08197
8.97269
8.83871
8.68172
8.50256
8.30186
8.08718
7.87508
7.69129
7.5524
7.45449
7.37864
7.2999
7.20244
7.07357
6.91483
6.7798
6.72807
6.70127
6.62586
548.996
512.865
6.62189
7.60862
8.20282
8.56157
8.80208
8.97948
9.1144
9.21486
9.28419
9.32367
9.33357
9.31477
9.26725
9.19233
9.09175
8.96803
8.82455
8.66532
8.48905
8.29459
8.08222
7.85541
7.62847
7.43778
7.31177
7.2307
7.1593
7.0668
6.93535
6.81141
6.73826
6.70062
6.63042
549.08
512.853
6.61919
7.6218
8.23953
8.61506
8.8665
9.05253
9.19537
9.30364
9.38114
9.42944
9.44914
9.44126
9.4054
9.34203
9.25162
9.13523
8.99509
8.83565
8.6593
8.46725
8.25959
8.0352
7.79701
7.56854
7.37874
7.23073
7.11107
7.01234
6.92023
6.82495
6.75748
6.71119
6.65556
549.203
512.877
6.64735
7.65319
8.27556
8.65731
8.91432
9.10511
9.2526
9.36603
9.44953
9.50468
9.53166
9.53049
9.50186
9.44465
9.36014
9.24954
9.11469
8.95872
8.78417
8.59108
8.37909
8.14784
7.9009
7.66049
7.45143
7.27071
7.12292
7.00682
6.91
6.83033
6.77766
6.73985
6.70075
549.32
512.921
6.69646
7.7157
8.34365
8.72879
8.98908
9.18342
9.33487
9.45291
9.54207
9.60402
9.63886
9.64598
9.62721
9.57859
9.50207
9.39815
9.268
9.11403
8.93947
8.74401
8.52645
8.28579
8.02522
7.7672
7.53857
7.33766
7.16476
7.02363
6.91792
6.84527
6.8046
6.77649
6.74984
549.407
512.977
6.75613
7.781
8.40816
8.79122
9.05059
9.24598
9.40034
9.5226
9.61722
9.68612
9.72926
9.74474
9.73351
9.69467
9.62831
9.53361
9.41103
9.26229
9.08987
8.89251
8.66928
8.41981
8.1469
7.87077
7.62137
7.40086
7.20875
7.05252
6.93698
6.8669
6.83554
6.81641
6.80042
549.497
513.038
6.83514
7.87488
8.50023
8.87676
9.13128
9.3241
9.47746
9.60049
9.69826
9.7733
9.82599
9.85472
9.85846
9.83815
9.78589
9.70214
9.58716
9.44309
9.27157
9.07241
8.8454
8.58921
8.30666
8.01188
7.73696
7.49513
7.28084
7.10252
6.97146
6.89775
6.8719
6.86203
6.85922
549.599
513.115
6.92969
7.97636
8.59156
8.95587
9.20286
9.39153
9.54219
9.66402
9.76265
9.84133
9.90122
9.943
9.96421
9.96203
9.93271
9.87176
9.77535
9.64175
9.4719
9.26718
9.03111
8.7627
8.46706
8.1547
7.85539
7.59071
7.3559
7.15894
7.01437
6.93797
6.91655
6.91402
6.91705
549.652
513.204
7.03495
8.08996
8.6913
9.04213
9.2805
9.46337
9.60943
9.72831
9.82627
9.90657
9.9716
10.0201
10.0501
10.0588
10.0459
10.0035
9.93016
9.82256
9.67666
9.48718
9.24938
8.96238
8.63904
8.29358
7.96277
7.67045
7.41296
7.20171
7.05379
6.9847
6.96901
6.96641
6.96079
549.665
513.334
7.17214
8.22124
8.79526
9.12645
9.35232
9.52518
9.66306
9.77619
9.87168
9.95193
10.0182
10.0721
10.1106
10.1305
10.1283
10.1005
10.0438
9.95568
9.83147
9.66698
9.45575
9.18785
8.85444
8.47496
8.11454
7.78512
7.48874
7.25048
7.09156
7.02388
7.01285
7.01153
7.00336
549.727
513.485
7.30796
8.34088
8.88635
9.19723
9.40977
9.57208
9.70174
9.80798
9.89538
9.97584
10.0506
10.1137
10.162
10.1926
10.2017
10.1881
10.1456
10.0722
9.96361
9.81697
9.62827
9.3906
9.09523
8.74713
8.37662
7.99563
7.63653
7.34597
7.15597
7.07743
7.06543
7.06516
7.06251
549.835
513.65
7.44259
8.44672
8.96332
9.25425
9.4526
9.60316
9.72207
9.81738
9.90192
9.97977
10.0548
10.1261
10.1874
10.2316
10.2532
10.2516
10.2234
10.1635
10.0677
9.93408
9.7605
9.54356
9.27892
8.96904
8.62816
8.25307
7.85359
7.49013
7.23919
7.1305
7.11604
7.12191
7.12125
549.853
513.776
7.54114
8.52272
9.01761
9.2932
9.47923
9.61822
9.72468
9.81602
9.89805
9.97813
10.0547
10.1262
10.1903
10.2429
10.2826
10.2979
10.2858
10.2407
10.1589
10.0385
9.87709
9.67214
9.42069
9.12248
8.78112
8.39144
7.97574
7.60131
7.34242
7.22212
7.19155
7.18007
7.15252
549.787
513.867
7.60767
8.57633
9.05908
9.32409
9.50027
9.62913
9.72477
9.80092
9.868
9.9388
10.0185
10.1018
10.1791
10.2426
10.2876
10.3162
10.3231
10.2969
10.2345
10.1351
9.99629
9.81461
9.58516
9.30346
8.96518
8.55748
8.10081
7.68065
7.40442
7.28931
7.25561
7.2297
7.17584
549.768
513.934
7.65515
8.61434
9.09078
9.35106
9.52086
9.64012
9.72167
9.78106
9.83285
9.89087
9.964
10.0493
10.1363
10.2146
10.2764
10.317
10.3345
10.3263
10.2831
10.2045
10.09
9.93758
9.74337
9.50215
9.20501
8.82958
8.37358
7.89812
7.53482
7.36277
7.30985
7.27619
7.21381
549.81
513.993
7.69631
8.64839
9.12174
9.38213
9.54981
9.66174
9.73277
9.77434
9.80401
9.84193
9.90036
9.98033
10.0717
10.1612
10.2386
10.2972
10.3299
10.332
10.3037
10.2388
10.1381
10.0014
9.82665
9.61005
9.34293
9.00508
8.58734
8.12354
7.72186
7.4869
7.39039
7.3324
7.24928
549.812
514.024
7.70842
8.66079
9.13987
9.40741
9.58115
9.6939
9.75576
9.78204
9.78904
9.7926
9.82525
9.88683
9.97461
10.0733
10.1671
10.2444
10.297
10.3195
10.3078
10.2616
10.1778
10.0534
9.88863
9.68059
9.41845
9.08561
8.68045
8.23866
7.85264
7.6023
7.47428
7.38873
7.2772
549.797
514.055
7.71219
8.66445
9.15369
9.43016
9.61335
9.73458
9.79928
9.81101
9.78966
9.76665
9.75297
9.78523
9.85373
9.94922
10.0547
10.1508
10.2257
10.2723
10.2858
10.2635
10.2041
10.1083
9.97158
9.78944
9.54762
9.229
8.82899
8.38015
7.97917
7.70564
7.55114
7.44498
7.31399
549.83
514.065
7.7157
8.66817
9.16023
9.44713
9.64193
9.7756
9.85319
9.87422
9.84623
9.78438
9.72866
9.69802
9.71917
9.7993
9.90517
10.0157
10.1123
10.1838
10.2239
10.2285
10.1969
10.1273
10.0208
9.87269
9.66863
9.38973
9.02277
8.58293
8.15521
7.83496
7.64061
7.50964
7.36392
549.896
514.064
7.70506
8.66089
9.15996
9.45889
9.66587
9.81278
9.90549
9.94214
9.93006
9.87127
9.77822
9.6871
9.64385
9.64319
9.7237
9.83232
9.94359
10.0393
10.1071
10.1398
10.1337
10.0883
10.0043
9.87857
9.70078
9.4545
9.12756
8.72726
8.31377
7.97317
7.74627
7.58527
7.40934
549.89
514.038
7.67246
8.63626
9.15265
9.46181
9.68208
9.84257
9.95023
10.0044
10.0094
9.96846
9.8852
9.76863
9.6458
9.57354
9.55559
9.62694
9.73213
9.84287
9.93856
10.0044
10.0319
10.0186
9.96283
9.86035
9.69886
9.46787
9.16332
8.79901
8.4191
8.0853
7.84061
7.65333
7.44514
549.89
514.009
7.64187
8.61062
9.13931
9.46208
9.69645
9.87141
9.99498
10.0686
10.0902
10.0672
10.0012
9.89561
9.75697
9.60479
9.48836
9.44418
9.48285
9.59159
9.70753
9.80933
9.88041
9.91303
9.90329
9.84187
9.71516
9.51669
9.23519
8.89122
8.52817
8.19762
7.93934
7.7328
7.50182
549.94
513.978
7.60517
8.58014
9.12325
9.46117
9.70694
9.89547
10.0347
10.1262
10.1668
10.1635
10.1166
10.0291
9.90452
9.74834
9.57583
9.42697
9.34783
9.34489
9.43343
9.5473
9.65408
9.73383
9.77689
9.77172
9.70002
9.54162
9.30532
8.9906
8.63814
8.30346
8.03298
7.81023
7.55957
549.989
513.93
7.55996
8.54397
9.10193
9.45389
9.71359
9.91673
10.0717
10.1806
10.2436
10.2586
10.2312
10.1626
10.0554
9.9125
9.73852
9.54552
9.36226
9.23394
9.18693
9.24639
9.36485
9.48332
9.5767
9.62607
9.61091
9.51244
9.31236
9.04595
8.72475
8.40056
8.12728
7.8921
7.61716
549.993
513.875
7.51247
8.50692
9.08131
9.44811
9.72143
9.93859
10.1088
10.2344
10.3156
10.3498
10.3428
10.2939
10.2052
10.079
9.91824
9.72814
9.52012
9.31226
9.14333
9.05491
9.077
9.19502
9.33026
9.4356
9.47708
9.4341
9.29314
9.06536
8.77786
8.47334
8.20428
7.96085
7.66141
550.001
513.813
7.46077
8.46637
9.0585
9.44118
9.72864
9.95951
10.1442
10.2857
10.3845
10.44
10.4514
10.4222
10.3531
10.2455
10.101
9.92275
9.71648
9.49162
9.26196
9.06047
8.93721
8.93043
9.04371
9.19781
9.30823
9.33137
9.25685
9.08165
8.83413
8.54987
8.28531
8.03858
7.72973
550.1
513.759
7.41241
8.43072
9.04253
9.44081
9.74359
9.98859
10.1874
10.3434
10.4576
10.5296
10.5582
10.5462
10.4942
10.403
10.2738
10.1082
9.90933
9.684
9.43824
9.18783
8.96871
8.84058
8.84459
8.96127
9.11631
9.21017
9.2018
9.0815
8.87418
8.61356
8.35862
8.11534
7.80842
550.214
513.726
7.37344
8.40022
9.036
9.4538
9.77057
10.0295
10.2418
10.4107
10.538
10.6242
10.6683
10.6706
10.6325
10.5544
10.4372
10.2819
10.0903
9.86592
9.61317
9.33947
9.06943
8.85774
8.76412
8.79363
8.91771
9.06264
9.12599
9.07407
8.91041
8.67401
8.43141
8.18945
7.87143
550.238
513.725
7.36216
8.39266
9.03656
9.47119
9.80498
10.0801
10.3057
10.4867
10.6265
10.7261
10.7842
10.7999
10.7749
10.7084
10.6015
10.4551
10.2706
10.05
9.79609
9.51029
9.20798
8.93609
8.7633
8.71935
8.78194
8.9058
9.01722
9.03123
8.91203
8.71243
8.48953
8.25293
7.9219
550.241
513.743
7.36194
8.39873
9.05546
9.49819
9.84268
10.1313
10.3715
10.5686
10.7245
10.8389
10.9107
10.9389
10.9258
10.8702
10.7722
10.6329
10.4537
10.2371
9.98598
9.69935
9.38403
9.06759
8.8178
8.70015
8.70556
8.79379
8.90486
8.95602
8.90485
8.7421
8.53973
8.30956
7.9643
550.272
513.781
7.3837
8.41981
9.07464
9.52112
9.87547
10.1767
10.4315
10.645
10.8187
10.9524
11.0446
11.0925
11.0947
11.0533
10.9639
10.8315
10.6555
10.4395
10.1882
9.90027
9.57765
9.23533
8.92933
8.73237
8.66956
8.70982
8.81239
8.88946
8.88138
8.76355
8.58815
8.37166
8.03883
550.447
513.834
7.40509
8.43472
9.09224
9.54622
9.91141
10.2218
10.4855
10.7093
10.895
11.0432
11.1532
11.2234
11.2524
11.238
11.1737
11.055
10.881
10.6592
10.3989
10.0983
9.76199
9.39964
9.05666
8.80706
8.67898
8.67594
8.74845
8.83784
8.85949
8.78264
8.63275
8.43342
8.11362
550.538
513.908
7.44813
8.46548
9.11354
9.5659
9.9376
10.2547
10.5255
10.7549
10.9453
11.0988
11.2162
11.2966
11.3406
11.3471
11.3156
11.2347
11.0993
10.9029
10.6417
10.3152
9.9463
9.54662
9.16192
8.8689
8.70031
8.66259
8.71768
8.80594
8.84385
8.79531
8.66985
8.48375
8.16071
550.528
513.968
7.47712
8.48205
9.12207
9.57637
9.9507
10.274
10.5547
10.793
10.9914
11.1504
11.2708
11.3531
11.3985
11.4075
11.3808
11.3124
11.1996
11.0373
10.8166
10.5252
10.1497
9.69779
9.24907
8.90086
8.70498
8.6564
8.71464
8.80296
8.84799
8.80951
8.69788
8.51684
8.17201
550.403
514.024
7.50098
8.48608
9.12137
9.57599
9.95015
10.2751
10.5604
10.8102
11.0192
11.1882
11.3185
11.4102
11.4649
11.4833
11.4657
11.409
11.3119
11.1722
10.983
10.7337
10.407
9.98329
9.47897
9.02987
8.7435
8.65973
8.70758
8.80233
8.85361
8.82473
8.72318
8.54508
8.18531
550.391
514.051
7.50359
8.48473
9.10946
9.56237
9.94008
10.2718
10.5623
10.8135
11.0297
11.2092
11.3478
11.4474
11.5097
11.5357
11.5252
11.4768
11.3904
11.2666
11.1029
10.8945
10.6299
10.2886
9.85996
9.37978
8.93446
8.70708
8.71019
8.79234
8.85755
8.84298
8.74972
8.57764
8.22748
550.494
514.066
7.50162
8.46465
9.07949
9.52902
9.909
10.2473
10.548
10.8096
11.0302
11.2139
11.363
11.4764
11.5529
11.5921
11.5929
11.556
11.4783
11.3615
11.2064
11.0143
10.7816
10.4952
10.1435
9.73112
9.27474
8.90119
8.75887
8.79487
8.85964
8.85963
8.78159
8.61941
8.27466
550.557
514.072
7.48765
8.44395
9.05451
9.5007
9.87979
10.2188
10.5221
10.7896
11.0199
11.2111
11.3625
11.4789
11.5629
11.6113
11.6211
11.5933
11.5237
11.4106
11.254
11.0577
10.8235
10.5462
10.2216
9.8578
9.45405
9.07998
8.87199
8.84905
8.89568
8.89506
8.81686
8.65008
8.28095
550.513
514.071
7.46854
8.41317
9.01724
9.46306
9.84541
10.1892
10.4972
10.7687
11.0025
11.1987
11.3573
11.4792
11.5664
11.6226
11.6489
11.6376
11.5839
11.4818
11.3284
11.1255
10.8749
10.5745
10.2263
9.85504
9.48474
9.17506
8.9944
8.94982
8.96073
8.93518
8.8438
8.66065
8.25599
550.309
514.054
7.43921
8.37425
8.97397
9.41953
9.80424
10.1519
10.4646
10.7405
10.9781
11.1771
11.3386
11.4649
11.5587
11.6209
11.6513
11.6519
11.6162
11.5348
11.4041
11.2208
10.9812
10.6799
10.314
9.89904
9.50093
9.19446
9.04164
9.00692
9.00944
8.97237
8.87409
8.68208
8.25481
550.278
514.027
7.40264
8.32795
8.92337
9.36881
9.7566
10.1093
10.4281
10.7103
10.9539
11.158
11.3235
11.4531
11.55
11.6162
11.6523
11.6586
11.6358
11.5769
11.4763
11.3293
11.1306
10.8738
10.5505
10.1498
9.70093
9.32032
9.11351
9.06001
9.05244
9.00615
8.90062
8.70369
8.26909
550.345
514.005
7.36427
8.27942
8.87101
9.31708
9.70811
10.0654
10.3893
10.6766
10.9247
11.133
11.3023
11.4358
11.5364
11.6064
11.6468
11.6579
11.6373
11.5821
11.4924
11.3691
11.2086
11.0042
10.7461
10.41
9.99254
9.56323
9.26619
9.13979
9.09846
9.0437
8.93652
8.74191
8.3218
550.492
513.993
7.3314
8.23034
8.81592
9.26258
9.65836
10.0225
10.3535
10.6472
10.9004
11.1127
11.285
11.4211
11.5245
11.5974
11.6408
11.6548
11.6361
11.5822
11.4937
11.3736
11.2241
11.0444
10.8273
10.5501
10.196
9.79274
9.4488
9.25413
9.17142
9.09573
8.97815
8.77651
8.35167
550.509
513.967
7.29138
8.17382
8.75128
9.19726
9.59774
9.96971
10.3097
10.6115
10.8709
11.0872
11.2618
11.3993
11.5039
11.5786
11.6249
11.6426
11.6271
11.5744
11.4849
11.3616
11.2087
11.0297
10.8206
10.5682
10.2654
9.9249
9.60841
9.38905
9.26312
9.15629
9.01944
8.80071
8.3504
550.413
513.939
7.25601
8.11919
8.68442
9.12665
9.53043
9.91069
10.2617
10.5751
10.845
11.0697
11.2502
11.3915
11.4982
11.5741
11.6216
11.6414
11.6295
11.5812
11.495
11.3723
11.2174
11.0345
10.8208
10.5684
10.2755
9.97355
9.69945
9.48914
9.34215
9.21078
9.05828
8.82652
8.35429
550.377
513.925
7.225
8.06428
8.61334
9.04983
9.45533
9.8426
10.2037
10.5283
10.809
11.0432
11.2319
11.3797
11.4914
11.5712
11.6227
11.6458
11.6412
11.6047
11.5338
11.4265
11.2848
11.11
10.8908
10.6251
10.3292
10.0304
9.7733
9.57539
9.42092
9.2716
9.10316
8.85826
8.37118
550.417
513.923
7.20435
8.0162
8.54307
8.96971
9.37521
9.76923
10.1412
10.478
10.7704
11.0146
11.2116
11.3658
11.4821
11.5652
11.6193
11.6453
11.6436
11.6148
11.5601
11.48
11.3747
11.2377
11.0528
10.8082
10.51
10.189
9.89858
9.67476
9.5
9.33512
9.15734
8.91272
8.44824
550.644
513.93
7.18877
7.97255
8.4728
8.88232
9.28311
9.68146
10.0639
10.4139
10.7194
10.975
11.181
11.3416
11.4613
11.5449
11.5962
11.6176
11.6119
11.5819
11.5327
11.4678
11.3889
11.2896
11.1528
10.9596
10.6987
10.3889
10.0736
9.80853
9.59975
9.41257
9.22047
8.96415
8.49565
550.687
513.932
7.18035
7.94046
8.41361
8.80119
9.18927
9.58873
9.98075
10.3447
10.6652
10.9347
11.1527
11.3227
11.4489
11.5354
11.5844
11.5975
11.5769
11.5284
11.4631
11.3907
11.3203
11.2453
11.1417
10.9854
10.7742
10.5029
10.2001
9.92374
9.69493
9.48973
9.2813
9.00619
8.50262
550.632
513.925
7.17396
7.91708
8.36466
8.72678
9.09668
9.48921
9.88875
10.2658
10.6009
10.8847
11.1159
11.2979
11.4343
11.5286
11.5809
11.593
11.566
11.5031
11.4126
11.312
11.22
11.1404
11.0591
10.9501
10.7761
10.5565
10.2869
10.0154
9.77119
9.54853
9.32184
9.01975
8.47562
550.415
513.902
7.17209
7.90521
8.33214
8.66962
9.01746
9.39768
9.79747
10.1874
10.5374
10.8352
11.0793
11.2734
11.4216
11.5264
11.5886
11.6068
11.5805
11.5103
11.4036
11.276
11.1494
11.0343
10.9341
10.8398
10.7289
10.5597
10.3438
10.0951
9.84815
9.61306
9.37187
9.05192
8.47331
550.36
513.896
7.1742
7.90358
8.30896
8.6224
8.94599
9.30942
9.70636
10.1054
10.4731
10.7873
11.0455
11.2525
11.4133
11.5299
11.6063
11.6405
11.6294
11.5718
11.4698
11.3348
11.1845
11.0353
10.8985
10.7717
10.6563
10.5302
10.3564
10.1432
9.90729
9.66761
9.41752
9.08338
8.48411
550.368
513.913
7.19156
7.90899
8.30459
8.59396
8.89107
9.23214
9.61867
10.0221
10.4034
10.7354
11.0079
11.2268
11.3982
11.5247
11.6091
11.6555
11.6663
11.6391
11.57
11.4642
11.3272
11.1573
10.9684
10.7951
10.6582
10.5298
10.3798
10.1972
9.97944
9.73949
9.48265
9.14587
8.55252
550.622
513.962
7.21681
7.92522
8.30715
8.58507
8.85635
9.17173
9.54237
9.94539
10.3377
10.6863
10.9739
11.2036
11.382
11.5134
11.6027
11.6544
11.6722
11.6594
11.6177
11.5516
11.4582
11.3266
11.1542
10.9561
10.7579
10.5865
10.429
10.2549
10.0487
9.81384
9.5585
9.2241
8.6516
550.828
514.015
7.24006
7.94182
8.31854
8.58335
8.83246
9.11723
9.46401
9.86012
10.2617
10.6258
10.9311
11.1731
11.3582
11.4918
11.5796
11.6277
11.6421
11.629
11.5942
11.5457
11.4804
11.3892
11.2608
11.0915
10.9002
10.7067
10.5201
10.329
10.1167
9.8823
9.62567
9.28493
8.70734
550.844
514.051
7.25098
7.95333
8.32714
8.58408
8.81569
9.06853
9.38189
9.76062
10.1671
10.5483
10.8733
11.1314
11.3264
11.4643
11.5506
11.5919
11.5954
11.5696
11.5254
11.4774
11.4302
11.366
11.2652
11.1345
10.9732
10.7876
10.5926
10.3908
10.1741
9.93986
9.67921
9.32441
8.7096
550.725
514.056
7.25142
7.9588
8.33656
8.59194
8.81341
9.03127
9.3019
9.64815
10.0482
10.4468
10.7956
11.0766
11.289
11.4385
11.5305
11.5699
11.5646
11.5215
11.4544
11.3837
11.3247
11.2761
11.2205
11.1293
10.9991
10.8402
10.6514
10.445
10.2232
9.98634
9.71991
9.3481
8.69608
550.563
514.04
7.23535
7.95835
8.34398
8.6011
8.81511
9.01645
9.23593
9.53166
9.90617
10.3113
10.6871
10.9965
11.2337
11.4038
11.5113
11.56
11.5564
11.5064
11.4212
11.3203
11.2259
11.1544
11.1041
11.0555
10.9819
10.8559
10.6939
10.4945
10.2711
10.0309
9.75934
9.37774
8.69619
550.513
513.989
7.2077
7.94451
8.34547
8.60996
8.82456
9.01559
9.20176
9.43275
9.75661
10.1481
10.5437
10.8869
11.1567
11.3557
11.4884
11.5584
11.5692
11.5263
11.4383
11.32
11.1933
11.0827
11.0086
10.9639
10.9185
10.8387
10.7023
10.5241
10.3109
10.0735
9.80331
9.42022
8.72473
550.518
513.927
7.17823
7.93317
8.34793
8.62095
8.83964
9.02703
9.20192
9.38849
9.6331
9.97746
10.371
10.7431
11.0522
11.288
11.4544
11.5559
11.5953
11.5752
11.501
11.3804
11.2278
11.0794
10.9593
10.885
10.8439
10.7909
10.6904
10.5345
10.3359
10.1059
9.83907
9.45821
8.76209
550.597
513.863
7.14082
7.91315
8.344
8.63012
8.8581
9.05018
9.21835
9.38408
9.5785
9.83418
10.1857
10.5661
10.9111
11.1886
11.3946
11.5348
11.6134
11.6323
11.5939
11.4976
11.3476
11.1621
10.9892
10.8798
10.8118
10.759
10.6822
10.5493
10.3683
10.1491
9.88987
9.52014
8.84246
550.78
513.797
7.10416
7.8952
8.34394
8.64195
8.88029
9.08187
9.25541
9.41224
9.5789
9.78825
10.0479
10.3944
10.7518
11.0621
11.3045
11.481
11.598
11.6582
11.6626
11.6091
11.4918
11.3193
11.1186
10.9359
10.8228
10.7587
10.6828
10.5677
10.4018
10.1925
9.94287
9.58879
8.93871
551
513.748
7.07354
7.88008
8.34343
8.65454
8.90354
9.11618
9.30142
9.46605
9.62237
9.79158
10.005
10.2738
10.6059
10.9291
11.1987
11.4049
11.553
11.6478
11.6904
11.6777
11.602
11.4635
11.2748
11.0726
10.9069
10.7901
10.6999
10.5876
10.4321
10.2331
9.9939
9.65316
9.02506
551.153
513.709
7.04263
7.8687
8.35018
8.67287
8.93099
9.15393
9.35291
9.53397
9.69796
9.85171
10.0173
10.2376
10.5089
10.8145
11.0951
11.3215
11.4904
11.6081
11.6775
11.6944
11.6574
11.5577
11.4018
11.2126
11.027
10.8734
10.7508
10.6256
10.4696
10.2768
10.0456
9.71289
9.09131
551.188
513.664
7.00435
7.85571
8.36016
8.69568
8.96213
9.19421
9.40314
9.59353
9.76819
9.92938
10.0845
10.2618
10.4893
10.7544
11.0239
11.2575
11.4383
11.568
11.6503
11.6838
11.663
11.5889
11.4641
11.3061
11.1361
10.9748
10.8284
10.6802
10.5115
10.3158
10.0848
9.74952
9.11592
551.157
513.611
6.97993
7.85294
8.37236
8.71947
8.99432
9.23073
9.44203
9.63741
9.82227
9.99652
10.1606
10.329
10.5219
10.7515
11.0001
11.2283
11.4134
11.5509
11.6403
11.6785
11.6629
11.5926
11.4776
11.3396
11.1928
11.0453
10.8986
10.742
10.5642
10.3624
10.128
9.79017
9.14584
551.117
513.583
6.9749
7.85406
8.38282
8.73707
9.01578
9.25353
9.46724
9.6682
9.86152
10.048
10.2264
10.4024
10.5863
10.7905
11.0145
11.234
11.4209
11.5629
11.6572
11.6986
11.683
11.6105
11.4906
11.3501
11.2104
11.0772
10.9384
10.7816
10.6018
10.3983
10.163
9.82254
9.16479
551.122
513.59
6.98227
7.87141
8.40034
8.75401
9.03171
9.27054
9.48685
9.69463
9.90643
10.1249
10.3403
10.5457
10.7353
10.9171
11.1063
11.2991
11.474
11.6167
11.7201
11.7743
11.7716
11.7095
11.5904
11.4374
11.2792
11.1346
10.9919
10.8336
10.6524
10.4475
10.2112
9.87272
9.21976
551.286
513.688
7.04824
7.91274
8.42539
8.77394
9.04917
9.28192
9.49378
9.70234
9.92617
10.1781
10.4494
10.7071
10.9364
11.1304
11.302
11.4636
11.613
11.7417
11.8395
11.897
11.9053
11.8593
11.7541
11.6023
11.4264
11.2543
11.0927
10.9227
10.7313
10.516
10.2744
9.94282
9.32177
551.581
513.834
7.12284
7.95479
8.44787
8.78384
9.05316
9.28228
9.48563
9.6859
9.91123
10.182
10.4841
10.8026
11.0848
11.3114
11.4969
11.6566
11.7946
11.9091
11.9964
12.0506
12.0634
12.0273
11.9358
11.7902
11.6034
11.4011
11.2058
11.0137
10.8098
10.5889
10.3452
10.0098
9.3945
551.648
514.008
7.20142
7.98983
8.45808
8.78576
9.04686
9.26057
9.44511
9.62705
9.84316
10.127
10.4724
10.8311
11.1519
11.4185
11.6275
11.7967
11.9327
12.0402
12.1218
12.1749
12.1928
12.1675
12.0913
11.9587
11.7756
11.5612
11.3404
11.1219
10.8992
10.6663
10.4081
10.0537
9.40873
551.618
514.073
7.22578
7.99648
8.45807
8.77965
9.03407
9.23807
9.40405
9.55897
9.74254
10.0095
10.3707
10.7746
11.1435
11.4408
11.6741
11.8604
12.0074
12.1201
12.2036
12.2584
12.2797
12.2639
12.1987
12.0785
11.9043
11.6894
11.4561
11.2189
10.9783
10.7278
10.4523
10.076
9.39218
551.352
514.07
7.22787
7.98779
8.44295
8.76633
9.0249
9.22894
9.38005
9.48985
9.60456
9.80231
10.1188
10.5311
10.9471
11.2988
11.5839
11.813
11.986
12.1113
12.1999
12.2573
12.2819
12.2767
12.2279
12.1281
11.9731
11.7705
11.5371
11.2888
11.0327
10.7676
10.4783
10.0713
9.30802
551.053
513.966
7.16903
7.94425
8.41286
8.74846
9.01785
9.22757
9.37887
9.48238
9.56084
9.64882
9.8604
10.2152
10.6378
11.0428
11.3965
11.6815
11.8958
12.0515
12.1605
12.2305
12.2643
12.2657
12.226
12.1394
12.0066
11.8246
11.6018
11.3518
11.0863
10.8103
10.5075
10.0725
9.26915
550.963
513.883
7.1376
7.92099
8.39735
8.74711
9.03459
9.26208
9.42302
9.51883
9.56748
9.61112
9.70044
9.93324
10.3128
10.7413
11.1484
11.4861
11.745
11.9369
12.0744
12.1666
12.2195
12.2343
12.2089
12.137
12.0181
11.8531
11.6453
11.4032
11.138
10.858
10.5457
10.0947
9.27144
550.973
513.818
7.09669
7.88806
8.37623
8.74455
9.05505
9.30649
9.49063
9.60474
9.65608
9.66666
9.68678
9.79137
10.0582
10.4507
10.8814
11.2629
11.5649
11.7942
11.9641
12.0847
12.1629
12.1983
12.1918
12.1377
12.0369
11.8854
11.6878
11.4519
11.1885
10.9074
10.5898
10.1312
9.29968
551.075
513.748
7.05605
7.85691
8.35582
8.73989
9.07137
9.34551
9.55197
9.68582
9.75127
9.76157
9.7482
9.77227
9.91543
10.2264
10.6413
11.0454
11.3793
11.6386
11.8356
11.9819
12.0857
12.1476
12.1654
12.1348
12.0485
11.9128
11.7248
11.4946
11.2342
10.9543
10.6339
10.169
9.33242
551.127
513.695
7.02211
7.82649
8.33412
8.7336
9.08763
9.38719
9.61913
9.77626
9.86042
9.87992
9.85467
9.82797
9.87854
10.081
10.444
10.8506
11.2075
11.4911
11.7088
11.8732
11.9934
12.0728
12.1097
12.1031
12.0438
11.9227
11.7484
11.526
11.27
10.9912
10.6692
10.2008
9.3604
551.138
513.646
6.98529
7.79166
8.30954
8.72661
9.10357
9.42852
9.68611
9.86772
9.97438
10.0124
9.99476
9.9443
9.92213
10.0218
10.2953
10.6739
11.046
11.3552
11.5955
11.7788
11.9133
12.0047
12.0552
12.0632
12.0212
11.9201
11.7619
11.5513
11.3028
11.0261
10.7033
10.2311
9.38215
551.175
513.635
6.96267
7.76128
8.28438
8.71704
9.11585
9.46625
9.74886
9.95269
10.0782
10.133
10.1271
10.0757
10.0177
10.0321
10.2023
10.5159
10.8748
11.2046
11.4738
11.6829
11.837
11.9425
12.0035
12.021
11.9938
11.9201
11.7844
11.5905
11.3516
11.0783
10.7589
10.2942
9.46124
551.384
513.647
6.93958
7.72596
8.25449
8.70413
9.12674
9.50504
9.81285
10.0379
10.1804
10.2477
10.2487
10.1968
10.123
10.0925
10.1857
10.4359
10.7683
11.0993
11.3833
11.6111
11.7833
11.9038
11.975
12.0046
11.9911
11.9244
11.8036
11.6256
11.395
11.1264
10.8146
10.36
9.54405
551.533
513.686
6.91956
7.68502
8.2159
8.68082
9.12754
9.53666
9.87143
10.1175
10.2748
10.3507
10.3526
10.2915
10.1926
10.1182
10.1624
10.3819
10.7082
11.0467
11.3412
11.5804
11.7648
11.8968
11.9771
12.0159
12.0086
11.9512
11.8346
11.661
11.4382
11.1744
10.862
10.4024
9.57911
551.551
513.701
6.88488
7.62876
8.16301
8.64771
9.12793
9.56875
9.93362
10.205
10.3815
10.4685
10.4724
10.4001
10.2677
10.128
10.0909
10.2567
10.5726
10.931
11.261
11.5272
11.7295
11.8765
11.9729
12.0136
12.0122
11.9592
11.8501
11.6852
11.4701
11.2086
10.8933
10.4253
9.5799
551.471
513.693
6.83228
7.5541
8.08708
8.58696
9.0974
9.57452
9.97627
10.2799
10.4848
10.5957
10.6149
10.5493
10.405
10.2138
10.082
10.1396
10.3969
10.7425
11.0965
11.4123
11.6584
11.8332
11.9461
12.0033
12.0077
11.9583
11.8518
11.693
11.4844
11.2261
10.9068
10.4254
9.5513
551.288
513.665
6.76754
7.46923
7.99902
8.51469
9.0579
9.57397
10.0148
10.3532
10.5912
10.732
10.777
10.7344
10.6051
10.4016
10.1895
10.1284
10.2853
10.5785
10.9103
11.2271
11.5072
11.7345
11.8923
11.9788
11.9977
11.9536
11.8483
11.6937
11.492
11.2379
10.9173
10.4273
9.52031
551.172
513.623
6.69704
7.37545
7.89503
8.41914
8.99157
9.54787
10.0259
10.4076
10.685
10.8626
10.9416
10.9325
10.8338
10.6461
10.3934
10.2005
10.2391
10.4559
10.7568
11.0663
11.3466
11.5846
11.7684
11.8936
11.9477
11.9297
11.8426
11.6943
11.4982
11.2522
10.9342
10.4373
9.52034
551.139
513.575
6.63046
7.28557
7.78934
8.31538
8.9129
9.50793
10.0289
10.4493
10.7657
10.9842
11.1085
11.1419
11.0894
10.9474
10.7156
10.434
10.2817
10.381
10.6275
10.9252
11.209
11.4537
11.651
11.7923
11.8675
11.8717
11.8061
11.6793
11.4971
11.2612
10.9505
10.4594
9.53927
551.144
513.529
6.57038
7.19921
7.68039
8.19972
8.81488
9.44424
10.0049
10.4648
10.8223
11.0835
11.2538
11.3361
11.3365
11.2517
11.0766
10.8103
10.5164
10.3956
10.5262
10.7869
11.0709
11.3295
11.5428
11.7014
11.7966
11.8216
11.7775
11.6668
11.4981
11.2733
10.9724
10.4926
9.57894
551.222
513.5
6.52898
7.13211
7.58676
8.09122
8.71563
9.37382
9.97101
10.4668
10.8626
11.1633
11.3775
11.5105
11.5638
11.5405
11.4345
11.2314
10.9315
10.6251
10.5328
10.6751
10.935
11.1986
11.4278
11.6068
11.725
11.7745
11.7536
11.6608
11.5066
11.2933
11.003
10.5378
9.6425
551.337
513.473
6.49625
7.07637
7.50322
7.98377
8.60709
9.28664
9.91712
10.4469
10.8738
11.2128
11.4686
11.6475
11.7529
11.785
11.7422
11.6118
11.3743
11.0368
10.7227
10.6754
10.8301
11.0867
11.3287
11.5234
11.6595
11.7294
11.7283
11.657
11.5176
11.3161
11.0361
10.5816
9.69465
551.418
513.464
6.47778
7.03777
7.4388
7.88928
8.4999
9.19275
9.85184
10.4129
10.8717
11.2422
11.5346
11.7558
11.909
11.995
12.0128
11.9549
11.8017
11.5289
11.1564
10.8399
10.829
10.9818
11.2249
11.4444
11.6033
11.6936
11.7109
11.6599
11.536
11.3467
11.0782
10.638
9.76968
551.604
513.475
6.47431
7.01192
7.38926
7.80997
8.39923
9.09912
9.78182
10.37
10.8557
11.2537
11.5764
11.8315
12.0232
12.1536
12.2233
12.229
12.1567
11.978
11.6767
11.2982
10.9977
10.9844
11.1251
11.3298
11.5194
11.6445
11.6907
11.6624
11.5573
11.3828
11.128
10.7055
9.86591
551.828
513.51
6.47728
6.99801
7.35624
7.75191
8.31611
9.02242
9.72729
10.339
10.8453
11.2631
11.6062
11.8835
12.0996
12.2579
12.36
12.4065
12.39
12.2881
12.0761
11.7626
11.4225
11.194
11.1757
11.3151
11.4707
11.6007
11.6701
11.6628
11.5759
11.4155
11.1722
10.76
9.92973
551.888
513.559
6.49095
6.99114
7.33101
7.70537
8.24386
8.94979
9.67563
10.3109
10.8372
11.2711
11.6272
11.9168
12.1485
12.3232
12.4421
12.5097
12.5233
12.4657
12.3132
12.0601
11.7523
11.485
11.3521
11.3612
11.4753
11.6
11.6671
11.6636
11.5849
11.4336
11.1983
10.7919
9.96236
551.874
513.599
6.50032
6.98394
7.30511
7.65465
8.1654
8.86071
9.61095
10.2737
10.8214
11.268
11.6347
11.9385
12.1816
12.3634
12.4898
12.5679
12.5964
12.5628
12.4454
12.2373
11.9685
11.7094
11.5419
11.5005
11.5532
11.6283
11.6792
11.6742
11.6006
11.4553
11.2241
10.8168
9.96793
551.765
513.61
6.50516
6.98002
7.28107
7.59569
8.05991
8.72533
9.49614
10.1926
10.7657
11.2334
11.6227
11.9424
12.1922
12.3776
12.5108
12.5979
12.6358
12.6172
12.5235
12.3483
12.1165
11.8798
11.6992
11.6191
11.6227
11.6634
11.6925
11.6781
11.6031
11.4611
11.2334
10.8265
9.96885
551.693
513.61
6.50723
6.97962
7.26336
7.54096
7.94314
8.55182
9.32595
10.0663
10.6793
11.1777
11.5891
11.9219
12.1779
12.3696
12.5105
12.6064