/*--------------------------------*- C++ -*----------------------------------*\
| =========                 |                                                 |
| \\      /  F ield         | OpenFOAM: The Open Source CFD Toolbox           |
|  \\    /   O peration     | Version:  2.0.x                                 |
|   \\  /    A nd           | Web:      www.OpenFOAM.org                      |
|    \\/     M anipulation  |                                                 |
\*---------------------------------------------------------------------------*/
FoamFile
{
    version     2.0;
    format      ascii;
    class       surfaceScalarField;
    location    "900";
    object      phi;
}
// * * * * * * * * * * * * * * * * * * * * * * * * * * * * * * * * * * * * * //

dimensions      [1 0 -1 0 0 0 0];

internalField   nonuniform List<scalar> 
228225
(
-1.47393e-06
6.41038e-07
6.49132e-07
-3.01849e-06
3.07119e-07
1.23747e-06
-3.64599e-06
-7.99136e-07
1.42667e-06
-2.93668e-06
-2.18312e-06
1.47386e-06
-1.01181e-06
-3.40968e-06
1.48486e-06
1.89572e-06
-4.39656e-06
1.48908e-06
5.51738e-06
-5.10285e-06
1.48125e-06
9.60507e-06
-5.55424e-06
1.46662e-06
1.39626e-05
-5.80794e-06
1.45046e-06
1.839e-05
-5.86015e-06
1.43288e-06
2.27258e-05
-5.74819e-06
1.41237e-06
2.69458e-05
-5.58604e-06
1.36608e-06
3.09457e-05
-5.3206e-06
1.32077e-06
3.46273e-05
-4.97204e-06
1.29049e-06
3.78714e-05
-4.50633e-06
1.26227e-06
4.06141e-05
-3.97679e-06
1.23408e-06
4.28197e-05
-3.41153e-06
1.20599e-06
4.4455e-05
-2.81813e-06
1.18284e-06
4.55557e-05
-2.26375e-06
1.16307e-06
4.60038e-05
-1.57819e-06
1.13014e-06
4.59735e-05
-1.08234e-06
1.1127e-06
4.53982e-05
-5.12529e-07
1.08776e-06
4.43067e-05
2.5389e-08
1.06616e-06
4.27218e-05
5.38902e-07
1.046e-06
4.06749e-05
1.02021e-06
1.02668e-06
3.8185e-05
1.48172e-06
1.0081e-06
3.5172e-05
2.02358e-06
9.89396e-07
3.18287e-05
2.37388e-06
9.69386e-07
2.81272e-05
2.75249e-06
9.4899e-07
2.41e-05
3.09694e-06
9.30168e-07
1.9788e-05
3.40466e-06
9.07182e-07
1.52266e-05
3.6879e-06
8.73467e-07
1.03115e-05
4.09014e-06
8.24775e-07
4.8874e-06
4.70107e-06
7.2281e-07
4.51684e-06
3.70552e-07
2.41141e-07
-1.23859e-07
5.23715e-07
1.49446e-06
-2.00341e-06
1.05716e-06
3.97256e-06
-4.54953e-06
1.27225e-06
7.36018e-06
-6.90604e-06
1.33525e-06
1.12103e-05
-8.59905e-06
1.33921e-06
1.52048e-05
-9.69642e-06
1.3053e-06
1.91322e-05
-1.03033e-05
1.27306e-06
2.28803e-05
-1.05338e-05
1.23134e-06
2.64413e-05
-1.05678e-05
1.19889e-06
2.97505e-05
-1.03335e-05
1.16418e-06
3.27494e-05
-9.89299e-06
1.14585e-06
3.53717e-05
-9.34611e-06
1.13779e-06
3.75944e-05
-8.67237e-06
1.129e-06
3.93023e-05
-7.78854e-06
1.10869e-06
4.05613e-05
-6.85048e-06
1.08514e-06
4.14088e-05
-5.8831e-06
1.05875e-06
4.18717e-05
-4.90313e-06
1.02871e-06
4.19831e-05
-3.92707e-06
9.97506e-07
4.1722e-05
-2.97354e-06
9.70945e-07
4.12427e-05
-2.05078e-06
9.51873e-07
4.03382e-05
-1.11696e-06
9.39092e-07
3.90445e-05
-1.51561e-07
9.32719e-07
3.75613e-05
5.76664e-07
9.31914e-07
3.58161e-05
1.34994e-06
9.34136e-07
3.37936e-05
2.10546e-06
9.37245e-07
3.15065e-05
2.8293e-06
9.39551e-07
2.89995e-05
3.59493e-06
9.35584e-07
2.62609e-05
4.18094e-06
9.31586e-07
2.32028e-05
4.88119e-06
9.29336e-07
1.98269e-05
5.54748e-06
9.25337e-07
1.61285e-05
6.18613e-06
9.16852e-07
1.20656e-05
6.85323e-06
8.97547e-07
7.61795e-06
7.68614e-06
8.51654e-07
3.16181e-06
8.43151e-06
7.25664e-07
7.29299e-06
3.85657e-07
1.00125e-06
-1.46968e-06
3.44689e-07
3.79132e-06
-5.48568e-06
6.92324e-07
7.46524e-06
-9.04487e-06
8.21516e-07
1.10927e-05
-1.14061e-05
8.72761e-07
1.42717e-05
-1.26813e-05
9.0326e-07
1.6899e-05
-1.32518e-05
9.28129e-07
1.90249e-05
-1.33846e-05
9.55502e-07
2.07203e-05
-1.32027e-05
9.73503e-07
2.20405e-05
-1.28638e-05
9.75801e-07
2.30828e-05
-1.23268e-05
9.51027e-07
2.39026e-05
-1.16295e-05
9.16695e-07
2.44429e-05
-1.07597e-05
8.73301e-07
2.46582e-05
-9.70757e-06
8.20034e-07
2.47363e-05
-8.62375e-06
7.57156e-07
2.47055e-05
-7.51372e-06
6.94024e-07
2.4557e-05
-6.36286e-06
6.28368e-07
2.42784e-05
-5.18911e-06
5.6461e-07
2.38594e-05
-4.0159e-06
5.07874e-07
2.32892e-05
-2.86663e-06
4.63318e-07
2.25813e-05
-1.77622e-06
4.33361e-07
2.17718e-05
-7.27687e-07
4.20315e-07
2.08976e-05
2.99329e-07
4.23295e-07
2.00715e-05
9.62025e-07
4.40838e-07
1.92386e-05
1.72735e-06
4.55434e-07
1.83318e-05
2.52957e-06
4.82749e-07
1.73087e-05
3.33224e-06
5.20082e-07
1.62144e-05
4.12566e-06
5.63559e-07
1.48692e-05
4.9133e-06
6.12834e-07
1.33065e-05
5.79065e-06
6.53229e-07
1.14772e-05
6.68069e-06
6.96087e-07
9.3156e-06
7.61825e-06
7.29384e-07
6.74205e-06
8.68169e-06
7.45029e-07
3.86678e-06
9.83592e-06
7.25435e-07
1.25766e-06
1.04462e-05
5.94351e-07
8.2875e-06
2.63159e-07
1.04037e-06
-2.78974e-06
2.7974e-07
3.08787e-06
-8.10557e-06
5.72443e-07
5.07972e-06
-1.177e-05
7.33267e-07
6.53173e-06
-1.3704e-05
8.459e-07
7.47309e-06
-1.45433e-05
9.20693e-07
8.10108e-06
-1.48344e-05
9.54716e-07
8.58638e-06
-1.48269e-05
9.56975e-07
9.04732e-06
-1.4602e-05
9.38458e-07
9.44776e-06
-1.41744e-05
9.10143e-07
9.81265e-06
-1.35704e-05
8.78763e-07
1.01515e-05
-1.28009e-05
8.32639e-07
1.04902e-05
-1.18732e-05
7.74899e-07
1.08525e-05
-1.07788e-05
7.09e-07
1.11173e-05
-9.52625e-06
6.3777e-07
1.1216e-05
-8.1705e-06
5.58161e-07
1.11325e-05
-6.75934e-06
4.8003e-07
1.08802e-05
-5.33912e-06
4.0243e-07
1.05028e-05
-3.96266e-06
3.24258e-07
1.00553e-05
-2.66635e-06
2.47399e-07
9.58437e-06
-1.49059e-06
1.85371e-07
9.16834e-06
-4.58554e-07
1.46998e-07
8.99773e-06
3.36068e-07
1.33954e-07
8.84955e-06
9.64543e-07
1.45748e-07
8.72457e-06
1.68735e-06
1.65091e-07
8.59734e-06
2.45508e-06
2.01837e-07
8.41262e-06
3.26406e-06
2.53019e-07
8.10394e-06
4.12143e-06
3.13043e-07
7.60676e-06
5.03447e-06
3.7615e-07
6.95703e-06
6.00675e-06
4.33787e-07
6.09928e-06
7.0433e-06
4.95297e-07
4.94254e-06
8.22658e-06
5.48579e-07
3.43049e-06
9.61158e-06
5.82301e-07
1.76278e-06
1.09225e-05
5.81369e-07
3.42961e-07
1.13689e-05
4.9743e-07
8.43727e-06
1.93205e-07
3.72349e-07
-3.40389e-06
2.41946e-07
1.02525e-06
-9.24997e-06
4.91609e-07
1.58936e-06
-1.29596e-05
6.25632e-07
2.00469e-06
-1.48328e-05
7.13579e-07
2.35156e-06
-1.5664e-05
7.7388e-07
2.68925e-06
-1.5984e-05
8.1197e-07
3.02928e-06
-1.59968e-05
8.29953e-07
3.3806e-06
-1.57842e-05
8.30923e-07
3.74455e-06
-1.53576e-05
8.19318e-07
4.11343e-06
-1.47373e-05
7.98136e-07
4.47682e-06
-1.39343e-05
7.70035e-07
4.82835e-06
-1.29589e-05
7.34268e-07
5.18045e-06
-1.18198e-05
6.8899e-07
5.54752e-06
-1.0527e-05
6.33807e-07
5.91093e-06
-9.1024e-06
5.68611e-07
6.24402e-06
-7.58397e-06
4.91653e-07
6.52099e-06
-6.0223e-06
4.06345e-07
6.7163e-06
-4.47553e-06
3.17707e-07
6.81057e-06
-2.99056e-06
2.3009e-07
6.77749e-06
-1.6046e-06
1.47246e-07
6.64053e-06
-3.99044e-07
7.75626e-08
6.48341e-06
4.48734e-07
4.45678e-08
6.30612e-06
1.10634e-06
3.5605e-08
6.12573e-06
1.82826e-06
3.95917e-08
5.96464e-06
2.55269e-06
6.3601e-08
5.81079e-06
3.31309e-06
1.0495e-07
5.63229e-06
4.13867e-06
1.61392e-07
5.38931e-06
5.04644e-06
2.31145e-07
5.02808e-06
6.05454e-06
3.13566e-07
4.46873e-06
7.2175e-06
3.85287e-07
3.63511e-06
8.61584e-06
4.44499e-07
2.50386e-06
1.02572e-05
4.85806e-07
1.27404e-06
1.1663e-05
4.89485e-07
2.39779e-07
1.19898e-05
4.13618e-07
8.5238e-06
1.53255e-07
2.57359e-07
-3.83928e-06
1.78207e-07
7.2543e-07
-1.00856e-05
3.67655e-07
1.29329e-06
-1.402e-05
4.92617e-07
1.84738e-06
-1.59842e-05
5.97355e-07
2.33489e-06
-1.68287e-05
6.77216e-07
2.76207e-06
-1.71399e-05
7.28751e-07
3.15163e-06
-1.71409e-05
7.54549e-07
3.5231e-06
-1.69194e-05
7.63809e-07
3.88769e-06
-1.64822e-05
7.60083e-07
4.25317e-06
-1.58498e-05
7.47022e-07
4.62384e-06
-1.5032e-05
7.27122e-07
5.00074e-06
-1.40373e-05
7.01635e-07
5.38851e-06
-1.28785e-05
6.70984e-07
5.79917e-06
-1.15734e-05
6.35809e-07
6.24196e-06
-1.01413e-05
5.96212e-07
6.71021e-06
-8.60343e-06
5.5137e-07
7.17518e-06
-6.98622e-06
4.99123e-07
7.5851e-06
-5.32226e-06
4.37009e-07
7.88691e-06
-3.65334e-06
3.61193e-07
8.01973e-06
-2.00693e-06
2.69753e-07
7.93536e-06
-4.84033e-07
1.69559e-07
7.58043e-06
7.14154e-07
8.969e-08
7.18223e-06
1.45827e-06
4.64508e-08
6.77362e-06
2.21971e-06
1.73627e-08
6.39039e-06
2.92234e-06
1.37814e-08
6.0465e-06
3.62359e-06
3.36207e-08
5.72949e-06
4.38133e-06
7.45778e-08
5.40335e-06
5.23862e-06
1.34202e-07
5.00522e-06
6.24479e-06
2.08159e-07
4.448e-06
7.49028e-06
2.84759e-07
3.6448e-06
9.05908e-06
3.6026e-07
2.57417e-06
1.09098e-05
4.18238e-07
1.39808e-06
1.24012e-05
4.38216e-07
3.71475e-07
1.26428e-05
3.74026e-07
8.75472e-06
1.40569e-07
2.35312e-07
-4.19982e-06
1.25401e-07
8.06752e-07
-1.09349e-05
2.78057e-07
1.49814e-06
-1.51035e-05
3.92216e-07
2.18994e-06
-1.71609e-05
4.84946e-07
2.84034e-06
-1.80356e-05
5.56617e-07
3.44746e-06
-1.83505e-05
6.03511e-07
4.01713e-06
-1.83455e-05
6.34976e-07
4.5621e-06
-1.81143e-05
6.49916e-07
5.08484e-06
-1.76557e-05
6.5084e-07
5.5852e-06
-1.69904e-05
6.40321e-07
6.06185e-06
-1.61285e-05
6.19963e-07
6.51177e-06
-1.50783e-05
5.9116e-07
6.93008e-06
-1.3853e-05
5.56276e-07
7.31268e-06
-1.24745e-05
5.18601e-07
7.66149e-06
-1.09715e-05
4.81511e-07
7.98378e-06
-9.37309e-06
4.47508e-07
8.2871e-06
-7.70655e-06
4.17159e-07
8.57083e-06
-5.99347e-06
3.87645e-07
8.81402e-06
-4.24662e-06
3.50279e-07
8.97648e-06
-2.47346e-06
3.04278e-07
8.96095e-06
-7.06941e-07
2.3863e-07
8.64474e-06
8.7718e-07
1.53338e-07
8.20665e-06
1.80093e-06
9.55763e-08
7.68296e-06
2.70132e-06
4.22459e-08
7.1302e-06
3.46647e-06
8.78695e-09
6.59255e-06
4.16444e-06
-3.02928e-09
6.08685e-06
4.88085e-06
6.36453e-09
5.59789e-06
5.69116e-06
3.66372e-08
5.08078e-06
6.67466e-06
8.74688e-08
4.47231e-06
7.94198e-06
1.5704e-07
3.67271e-06
9.61661e-06
2.42335e-07
2.63909e-06
1.16209e-05
3.22742e-07
1.48941e-06
1.31808e-05
3.70382e-07
4.5847e-07
1.33533e-05
3.20875e-07
9.09412e-06
1.19082e-07
4.95649e-07
-4.77101e-06
7.56662e-08
1.39022e-06
-1.20431e-05
2.13618e-07
2.34281e-06
-1.63879e-05
3.31852e-07
3.24255e-06
-1.84814e-05
4.20882e-07
4.0719e-06
-1.93484e-05
4.83465e-07
4.83034e-06
-1.96332e-05
5.24284e-07
5.51961e-06
-1.95862e-05
5.51477e-07
6.12467e-06
-1.92851e-05
5.65827e-07
6.64474e-06
-1.87437e-05
5.68013e-07
7.07752e-06
-1.79817e-05
5.58624e-07
7.42438e-06
-1.70134e-05
5.38115e-07
7.69113e-06
-1.58517e-05
5.06691e-07
7.88879e-06
-1.45164e-05
4.65866e-07
8.0338e-06
-1.30377e-05
4.18342e-07
8.14532e-06
-1.14509e-05
3.67966e-07
8.24106e-06
-9.78819e-06
3.19465e-07
8.33311e-06
-8.07614e-06
2.77653e-07
8.42526e-06
-6.33151e-06
2.46027e-07
8.50033e-06
-4.54691e-06
2.25371e-07
8.5314e-06
-2.71307e-06
2.08697e-07
8.42243e-06
-7.83454e-07
1.85631e-07
8.29716e-06
8.56741e-07
1.4583e-07
7.98654e-06
2.00403e-06
1.07642e-07
7.53744e-06
3.09077e-06
5.97749e-08
7.02261e-06
3.96242e-06
1.89988e-08
6.49044e-06
4.70322e-06
-6.4898e-09
5.9625e-06
5.42235e-06
-1.34141e-08
5.43544e-06
6.21885e-06
-4.70452e-10
4.87901e-06
7.19768e-06
3.35772e-08
4.23462e-06
8.49756e-06
8.89975e-08
3.42874e-06
1.02621e-05
1.60578e-07
2.42794e-06
1.23821e-05
2.39778e-07
1.33885e-06
1.39725e-05
2.97495e-07
3.67708e-07
1.4057e-05
2.67629e-07
9.37344e-06
8.83909e-08
5.78581e-07
-5.41892e-06
6.94142e-08
1.4618e-06
-1.3148e-05
2.2175e-07
2.21908e-06
-1.74852e-05
3.4007e-07
2.84264e-06
-1.95198e-05
4.14808e-07
3.40143e-06
-2.03674e-05
4.60177e-07
3.91853e-06
-2.06394e-05
4.89149e-07
4.38527e-06
-2.05625e-05
5.09586e-07
4.781e-06
-2.02031e-05
5.22288e-07
5.09803e-06
-1.95867e-05
5.25955e-07
5.33106e-06
-1.87342e-05
5.19493e-07
5.48142e-06
-1.76661e-05
5.02351e-07
5.55702e-06
-1.64008e-05
4.73558e-07
5.5728e-06
-1.49653e-05
4.33161e-07
5.54843e-06
-1.33956e-05
3.82285e-07
5.50471e-06
-1.17306e-05
3.23453e-07
5.46086e-06
-1.00051e-05
2.60783e-07
5.43085e-06
-8.24586e-06
1.99784e-07
5.421e-06
-6.46811e-06
1.46531e-07
5.43427e-06
-4.66728e-06
1.07186e-07
5.45575e-06
-2.81399e-06
7.95449e-08
5.49227e-06
-8.89126e-07
6.92362e-08
5.5452e-06
7.40786e-07
6.31189e-08
5.46861e-06
2.0333e-06
4.74096e-08
5.31688e-06
3.22659e-06
1.60043e-08
5.09717e-06
4.19642e-06
-1.42008e-08
4.82406e-06
5.01672e-06
-4.02998e-08
4.51385e-06
5.7891e-06
-5.64387e-08
4.17299e-06
6.61843e-06
-5.85901e-08
3.77837e-06
7.63553e-06
-4.3071e-08
3.27824e-06
9.00359e-06
-5.71187e-09
2.6083e-06
1.08757e-05
5.64991e-08
1.76567e-06
1.30891e-05
1.35789e-07
8.78597e-07
1.46558e-05
2.03986e-07
1.28386e-07
1.46108e-05
1.96666e-07
9.45413e-06
4.76969e-08
4.24178e-07
-5.93227e-06
8.92371e-08
7.95403e-07
-1.37733e-05
2.54155e-07
9.24189e-07
-1.79772e-05
3.63231e-07
9.05973e-07
-1.99314e-05
4.29899e-07
8.44951e-07
-2.07726e-05
4.66252e-07
7.78736e-07
-2.10597e-05
4.8655e-07
7.14692e-07
-2.09983e-05
4.99924e-07
6.53747e-07
-2.06497e-05
5.07566e-07
5.9827e-07
-2.00399e-05
5.08717e-07
5.41577e-07
-1.91805e-05
5.02953e-07
4.7354e-07
-1.80884e-05
4.90298e-07
4.00584e-07
-1.67964e-05
4.68563e-07
3.43185e-07
-1.53441e-05
4.36197e-07
3.2404e-07
-1.3769e-05
3.92589e-07
3.58864e-07
-1.21036e-05
3.38206e-07
4.52772e-07
-1.03739e-05
2.74957e-07
6.00055e-07
-8.59973e-06
2.06588e-07
7.88317e-07
-6.79513e-06
1.38746e-07
1.00922e-06
-4.96657e-06
7.83741e-08
1.28234e-06
-3.1198e-06
3.26636e-08
1.68114e-06
-1.28978e-06
1.81943e-09
2.02258e-06
4.135e-07
-1.42006e-08
2.26596e-06
1.81391e-06
-2.40206e-08
2.45935e-06
3.07148e-06
-3.83288e-08
2.58756e-06
4.12846e-06
-6.02859e-08
2.65133e-06
5.03247e-06
-7.95588e-08
2.65405e-06
5.88009e-06
-9.37559e-08
2.58552e-06
6.78684e-06
-9.99462e-08
2.42533e-06
7.89015e-06
-9.44925e-08
2.13294e-06
9.36738e-06
-7.14878e-08
1.66328e-06
1.13698e-05
-2.44644e-08
1.04124e-06
1.36653e-05
4.5746e-08
4.18749e-07
1.51634e-05
1.14794e-07
-5.50831e-08
1.49608e-05
1.23634e-07
9.38375e-06
1.5298e-08
5.23899e-08
-6.1084e-06
1.23811e-07
-8.92808e-08
-1.39109e-05
2.79299e-07
-3.86624e-07
-1.80521e-05
3.72347e-07
-7.74477e-07
-1.99832e-05
4.39643e-07
-1.20031e-06
-2.08264e-05
4.79721e-07
-1.63016e-06
-2.1135e-05
5.05173e-07
-2.04559e-06
-2.11099e-05
5.27038e-07
-2.43996e-06
-2.07974e-05
5.42095e-07
-2.79583e-06
-2.02372e-05
5.53207e-07
-3.08775e-06
-1.94467e-05
5.58132e-07
-3.29092e-06
-1.84421e-05
5.56896e-07
-3.38639e-06
-1.72494e-05
5.48478e-07
-3.36645e-06
-1.58956e-05
5.31581e-07
-3.23604e-06
-1.44039e-05
5.04459e-07
-3.00889e-06
-1.27961e-05
4.65373e-07
-2.70241e-06
-1.10937e-05
4.13259e-07
-2.33385e-06
-9.31672e-06
3.48422e-07
-1.91684e-06
-7.48546e-06
2.73314e-07
-1.45692e-06
-5.61939e-06
1.92884e-07
-9.49771e-07
-3.74166e-06
1.14689e-07
-3.93261e-07
-1.89403e-06
4.77098e-08
1.81096e-07
-1.5958e-07
-1.30643e-09
6.59639e-07
1.36816e-06
-3.28249e-08
1.0504e-06
2.73524e-06
-5.45386e-08
1.3517e-06
3.89971e-06
-7.25717e-08
1.57231e-06
4.90163e-06
-8.97901e-08
1.71311e-06
5.84387e-06
-1.04597e-07
1.7692e-06
6.8455e-06
-1.14766e-07
1.71814e-06
8.05754e-06
-1.16362e-07
1.52751e-06
9.66199e-06
-1.04007e-07
1.17656e-06
1.17914e-05
-7.07219e-08
7.11259e-07
1.4144e-05
-1.33727e-08
2.7058e-07
1.55533e-05
5.07075e-08
-4.47169e-08
1.52052e-05
7.08554e-08
9.33472e-06
4.29917e-09
-3.79363e-07
-5.88506e-06
1.56108e-07
-9.37258e-07
-1.36367e-05
2.83762e-07
-1.48124e-06
-1.78571e-05
3.48988e-07
-2.00962e-06
-1.98735e-05
4.1867e-07
-2.53485e-06
-2.07689e-05
4.67699e-07
-3.04348e-06
-2.11269e-05
5.00542e-07
-3.5104e-06
-2.11718e-05
5.288e-07
-3.90611e-06
-2.09466e-05
5.44849e-07
-4.21175e-06
-2.04876e-05
5.55978e-07
-4.40482e-06
-1.98209e-05
5.67335e-07
-4.45853e-06
-1.89654e-05
5.77076e-07
-4.36158e-06
-1.79307e-05
5.84358e-07
-4.12282e-06
-1.67243e-05
5.89897e-07
-3.76563e-06
-1.53531e-05
5.92005e-07
-3.31662e-06
-1.38327e-05
5.8754e-07
-2.79921e-06
-1.21834e-05
5.72324e-07
-2.23101e-06
-1.0427e-05
5.42041e-07
-1.62351e-06
-8.5865e-06
4.93474e-07
-9.82007e-07
-6.68694e-06
4.25971e-07
-3.16956e-07
-4.74923e-06
3.42426e-07
3.41666e-07
-2.80272e-06
2.49956e-07
9.22051e-07
-8.9947e-07
1.59382e-07
1.3569e-06
8.48125e-07
8.50622e-08
1.76136e-06
2.30579e-06
2.48739e-08
2.03702e-06
3.64084e-06
-1.69043e-08
2.18207e-06
4.80228e-06
-4.58138e-08
2.21658e-06
5.87176e-06
-6.25339e-08
2.16118e-06
6.98366e-06
-8.28997e-08
2.00809e-06
8.30405e-06
-9.35785e-08
1.73586e-06
1.00265e-05
-9.24405e-08
1.34017e-06
1.22604e-05
-7.3419e-08
8.77616e-07
1.46375e-05
-3.10964e-08
4.46925e-07
1.59598e-05
2.40513e-08
9.92129e-08
1.55002e-05
5.25463e-08
9.40795e-06
2.59834e-08
-3.88703e-07
-5.63404e-06
1.37843e-07
-9.28415e-07
-1.33171e-05
2.20233e-07
-1.40598e-06
-1.76318e-05
2.52351e-07
-1.80814e-06
-1.9765e-05
2.93746e-07
-2.18102e-06
-2.07664e-05
3.70409e-07
-2.50271e-06
-2.12304e-05
4.25188e-07
-2.75554e-06
-2.13732e-05
4.54293e-07
-2.9138e-06
-2.12601e-05
4.71821e-07
-2.96067e-06
-2.09238e-05
4.83153e-07
-2.89251e-06
-2.03812e-05
4.92118e-07
-2.71868e-06
-1.9642e-05
5.02778e-07
-2.44179e-06
-1.87231e-05
5.15489e-07
-2.07384e-06
-1.76223e-05
5.30095e-07
-1.64276e-06
-1.63327e-05
5.48543e-07
-1.16046e-06
-1.48858e-05
5.70863e-07
-6.30173e-07
-1.3308e-05
5.94317e-07
-6.12528e-08
-1.16093e-05
6.13322e-07
5.25561e-07
-9.79289e-06
6.19567e-07
1.1359e-06
-7.90146e-06
6.04155e-07
1.75888e-06
-5.9346e-06
5.62362e-07
2.35687e-06
-3.89321e-06
4.92458e-07
2.8522e-06
-1.79246e-06
3.97616e-07
3.1415e-06
2.70424e-07
2.88349e-07
3.40099e-06
1.84126e-06
2.04982e-07
3.49885e-06
3.4139e-06
1.29014e-07
3.43625e-06
4.79225e-06
7.25607e-08
3.2656e-06
6.02481e-06
1.75447e-08
2.99766e-06
7.26264e-06
-1.11028e-08
2.64734e-06
8.6876e-06
-3.33127e-08
2.21261e-06
1.05081e-05
-4.69181e-08
1.70296e-06
1.2815e-05
-4.51231e-08
1.17216e-06
1.51881e-05
-1.99257e-08
6.76427e-07
1.64319e-05
2.35078e-08
2.3088e-07
1.58924e-05
5.32159e-08
9.59617e-06
4.26575e-08
-1.96328e-07
-5.53078e-06
9.31424e-08
-3.87955e-07
-1.32553e-05
1.29874e-07
-4.54388e-07
-1.77178e-05
1.52442e-07
-4.53475e-07
-1.99823e-05
2.16461e-07
-4.13675e-07
-2.10794e-05
2.73298e-07
-3.41644e-07
-2.16095e-05
3.0715e-07
-2.46248e-07
-2.17991e-05
3.30454e-07
-1.18714e-07
-2.17372e-05
3.49604e-07
4.65904e-08
-2.14503e-05
3.61175e-07
2.49603e-07
-2.0951e-05
3.66831e-07
4.82578e-07
-2.02426e-05
3.67592e-07
7.11041e-07
-1.93171e-05
3.65594e-07
8.94792e-07
-1.81697e-05
3.63597e-07
1.05434e-06
-1.6864e-05
3.7174e-07
1.22614e-06
-1.54501e-05
3.92444e-07
1.44733e-06
-1.39561e-05
4.26865e-07
1.75168e-06
-1.23904e-05
4.76792e-07
2.15374e-06
-1.0735e-05
5.40084e-07
2.62321e-06
-8.96e-06
5.89083e-07
3.13667e-06
-7.06531e-06
6.17249e-07
3.67137e-06
-5.04422e-06
6.16326e-07
4.18379e-06
-2.88193e-06
5.77057e-07
4.57944e-06
-6.19139e-07
4.93917e-07
4.63374e-06
1.38692e-06
4.00056e-07
4.66228e-06
3.08596e-06
2.99408e-07
4.51666e-06
4.73196e-06
2.05922e-07
4.21571e-06
6.19894e-06
1.26819e-07
3.8064e-06
7.60077e-06
7.1192e-08
3.31648e-06
9.14478e-06
3.27488e-08
2.76107e-06
1.10568e-05
6.70559e-09
2.15371e-06
1.3427e-05
-4.59933e-09
1.53754e-06
1.5798e-05
6.34893e-09
9.42866e-07
1.69884e-05
3.81763e-08
3.75476e-07
1.63947e-05
6.50794e-08
9.90702e-06
6.46287e-08
9.3253e-08
-5.66367e-06
3.97393e-08
4.71167e-07
-1.36519e-05
1.87986e-08
1.06471e-06
-1.83191e-05
7.82352e-09
1.69442e-06
-2.06666e-05
5.45869e-08
2.24325e-06
-2.17599e-05
1.31653e-07
2.69531e-06
-2.22551e-05
1.93573e-07
3.06645e-06
-2.24083e-05
2.38174e-07
3.38203e-06
-2.23163e-05
2.63528e-07
3.64579e-06
-2.19885e-05
2.74479e-07
3.85195e-06
-2.14334e-05
2.76306e-07
3.97936e-06
-2.06452e-05
2.75278e-07
3.97707e-06
-1.9588e-05
2.73214e-07
3.87316e-06
-1.83435e-05
2.7774e-07
3.7278e-06
-1.69991e-05
2.80494e-07
3.5823e-06
-1.55895e-05
2.84999e-07
3.47258e-06
-1.4141e-05
2.94633e-07
3.44478e-06
-1.26738e-05
3.11324e-07
3.55347e-06
-1.11867e-05
3.43058e-07
3.78797e-06
-9.59713e-06
4.02684e-07
4.11623e-06
-7.86288e-06
4.69371e-07
4.51986e-06
-5.97768e-06
5.2989e-07
4.9708e-06
-3.90424e-06
5.71442e-07
5.37422e-06
-1.60124e-06
5.78747e-07
5.41475e-06
8.13054e-07
5.33386e-07
5.45786e-06
2.58429e-06
4.58608e-07
5.32291e-06
4.51572e-06
3.51237e-07
4.99381e-06
6.26846e-06
2.59622e-07
4.49581e-06
7.91831e-06
1.80494e-07
3.87993e-06
9.64227e-06
1.18431e-07
3.18772e-06
1.16767e-05
7.23517e-08
2.45158e-06
1.41189e-05
4.42539e-08
1.72487e-06
1.64838e-05
4.09249e-08
1.03146e-06
1.76202e-05
6.17034e-08
3.87706e-07
1.69564e-05
8.21803e-08
1.02208e-05
7.3952e-08
3.36449e-07
-6.0029e-06
2.8556e-09
1.16573e-06
-1.44673e-05
-1.39191e-08
2.17318e-06
-1.93117e-05
-1.47856e-08
3.12969e-06
-2.16318e-05
8.70994e-09
3.94793e-06
-2.26384e-05
6.03112e-08
4.6153e-06
-2.3037e-05
1.14475e-07
5.12656e-06
-2.30841e-05
1.64542e-07
5.49133e-06
-2.28837e-05
2.027e-07
5.70285e-06
-2.24241e-05
2.24174e-07
5.74248e-06
-2.17042e-05
2.31142e-07
5.5995e-06
-2.07287e-05
2.26532e-07
5.35706e-06
-1.95701e-05
2.24637e-07
5.09403e-06
-1.82981e-05
2.17798e-07
4.8274e-06
-1.69432e-05
2.10879e-07
4.56916e-06
-1.55386e-05
2.07431e-07
4.32668e-06
-1.41071e-05
2.08696e-07
4.10186e-06
-1.26623e-05
2.13324e-07
3.9118e-06
-1.12114e-05
2.14859e-07
3.83004e-06
-9.74518e-06
2.29894e-07
3.89313e-06
-8.20547e-06
2.79606e-07
4.09092e-06
-6.51875e-06
3.434e-07
4.38258e-06
-4.60989e-06
4.14126e-07
4.70429e-06
-2.40417e-06
4.81381e-07
4.97556e-06
1.86089e-08
5.23319e-07
5.12096e-06
1.92306e-06
5.15982e-07
5.04776e-06
4.12663e-06
4.62455e-07
4.73525e-06
6.19978e-06
3.81347e-07
4.24494e-06
8.12657e-06
2.822e-07
3.62518e-06
1.00686e-05
1.93583e-07
2.91981e-06
1.22589e-05
1.23233e-07
2.17696e-06
1.47859e-05
7.59599e-08
1.46467e-06
1.71381e-05
5.8046e-08
8.09893e-07
1.82078e-05
6.72422e-08
2.42859e-07
1.7445e-05
7.86157e-08
1.04038e-05
5.98749e-08
4.7712e-07
-6.47661e-06
-3.3915e-09
1.43129e-06
-1.54344e-05
1.30097e-08
2.46558e-06
-2.03731e-05
2.71315e-08
3.40464e-06
-2.26058e-05
3.49589e-08
4.21408e-06
-2.35033e-05
5.54546e-08
4.87922e-06
-2.37909e-05
8.88563e-08
5.39633e-06
-2.37265e-05
1.25315e-07
5.72405e-06
-2.33692e-05
1.57789e-07
5.84303e-06
-2.2719e-05
1.7594e-07
5.77879e-06
-2.18165e-05
1.76673e-07
5.59523e-06
-2.07099e-05
1.64813e-07
5.35037e-06
-1.94646e-05
1.39415e-07
5.04859e-06
-1.81062e-05
1.09867e-07
4.71628e-06
-1.66954e-05
8.45683e-08
4.39213e-06
-1.52848e-05
7.04519e-08
4.1072e-06
-1.38935e-05
7.13946e-08
3.87218e-06
-1.25134e-05
8.62029e-08
3.67599e-06
-1.1126e-05
1.10876e-07
3.52625e-06
-9.72794e-06
1.32587e-07
3.46937e-06
-8.30687e-06
1.5836e-07
3.51855e-06
-6.76732e-06
1.9949e-07
3.6781e-06
-5.02943e-06
2.60107e-07
3.941e-06
-3.00704e-06
3.40087e-07
4.26671e-06
-7.30914e-07
4.23941e-07
4.46291e-06
1.25841e-06
4.68578e-07
4.53554e-06
3.58254e-06
4.71589e-07
4.35236e-06
5.96146e-06
4.21624e-07
3.95837e-06
8.17444e-06
3.46256e-07
3.40661e-06
1.03656e-05
2.54849e-07
2.74263e-06
1.27507e-05
1.72369e-07
2.02499e-06
1.53931e-05
1.10544e-07
1.33269e-06
1.77511e-05
7.93853e-08
7.04823e-07
1.87589e-05
7.68858e-08
1.8708e-07
1.78869e-05
7.59413e-08
1.05499e-05
4.09582e-08
5.62982e-07
-7.03609e-06
-3.42796e-09
1.51082e-06
-1.6418e-05
3.58313e-08
2.41803e-06
-2.13336e-05
5.32797e-08
3.18406e-06
-2.34166e-05
4.4856e-08
3.8179e-06
-2.41838e-05
4.66892e-08
4.31054e-06
-2.4346e-05
6.24888e-08
4.63251e-06
-2.41353e-05
8.68681e-08
4.76724e-06
-2.36093e-05
1.05383e-07
4.75118e-06
-2.28148e-05
1.1184e-07
4.63939e-06
-2.1807e-05
1.02307e-07
4.44891e-06
-2.05952e-05
7.57768e-08
4.15743e-06
-1.92094e-05
3.63228e-08
3.79308e-06
-1.7732e-05
-9.78623e-09
3.40513e-06
-1.62543e-05
-5.31054e-08
3.04325e-06
-1.48382e-05
-8.4704e-08
2.74696e-06
-1.34977e-05
-9.94764e-08
2.53726e-06
-1.22078e-05
-9.57877e-08
2.41717e-06
-1.09309e-05
-7.50224e-08
2.36126e-06
-9.63079e-06
-4.11751e-08
2.3535e-06
-8.28644e-06
-1.25993e-08
2.41271e-06
-6.86435e-06
3.78923e-08
2.57377e-06
-5.29136e-06
1.00967e-07
2.87023e-06
-3.48613e-06
1.82722e-07
3.26026e-06
-1.40168e-06
2.80832e-07
3.4212e-06
7.42028e-07
3.55537e-07
3.60605e-06
2.98918e-06
4.08606e-07
3.59853e-06
5.55668e-06
4.12375e-07
3.334e-06
8.07477e-06
3.64266e-07
2.86155e-06
1.05504e-05
2.87779e-07
2.24413e-06
1.31656e-05
2.02572e-07
1.5694e-06
1.59367e-05
1.31261e-07
9.45345e-07
1.82859e-05
8.93181e-08
4.17122e-07
1.92112e-05
7.59899e-08
3.95002e-08
1.82002e-05
6.44252e-08
1.05657e-05
2.36684e-08
4.56596e-07
-7.52254e-06
2.98018e-08
1.10313e-06
-1.71795e-05
1.14866e-07
1.57587e-06
-2.19442e-05
1.37794e-07
1.89556e-06
-2.38434e-05
1.07079e-07
2.12683e-06
-2.44988e-05
8.37102e-08
2.27929e-06
-2.45727e-05
7.41775e-08
2.33398e-06
-2.42631e-05
7.30496e-08
2.29533e-06
-2.36444e-05
7.3762e-08
2.18836e-06
-2.27786e-05
7.07977e-08
2.00405e-06
-2.16828e-05
6.00654e-08
1.74565e-06
-2.03751e-05
3.83262e-08
1.46575e-06
-1.89306e-05
1.05623e-09
1.20688e-06
-1.74259e-05
-4.71879e-08
9.90404e-07
-1.59397e-05
-9.81124e-08
8.21405e-07
-1.45263e-05
-1.42867e-07
7.01788e-07
-1.32021e-05
-1.75942e-07
6.32925e-07
-1.19465e-05
-1.92436e-07
6.20793e-07
-1.07293e-05
-1.89405e-07
6.67957e-07
-9.50965e-06
-1.68296e-07
7.56405e-07
-8.2458e-06
-1.29076e-07
9.00823e-07
-6.91395e-06
-9.48083e-08
1.13562e-06
-5.48693e-06
-3.92153e-08
1.48596e-06
-3.86957e-06
3.31148e-08
1.93485e-06
-1.97488e-06
1.24325e-07
2.22814e-06
2.19245e-07
2.29494e-07
2.49279e-06
2.41129e-06
3.13254e-07
2.62497e-06
5.05727e-06
3.67223e-07
2.52205e-06
7.81696e-06
3.60727e-07
2.18674e-06
1.05854e-05
3.00256e-07
1.68468e-06
1.34465e-05
2.2112e-07
1.11869e-06
1.6358e-05
1.4465e-07
6.09559e-07
1.87007e-05
9.43514e-08
2.02398e-07
1.95477e-05
7.06577e-08
-4.67241e-08
1.84012e-05
4.80218e-08
1.05132e-05
5.76888e-09
2.09011e-07
-7.80605e-06
7.44454e-08
3.23778e-07
-1.74915e-05
1.97183e-07
2.81153e-07
-2.21239e-05
2.22344e-07
1.83893e-07
-2.39302e-05
1.84048e-07
8.41543e-08
-2.4541e-05
1.41921e-07
-9.11981e-09
-2.45929e-05
1.13437e-07
-1.01696e-07
-2.42694e-05
9.89307e-08
-1.97859e-07
-2.36395e-05
9.13076e-08
-3.37729e-07
-2.27319e-05
9.31451e-08
-5.02358e-07
-2.15995e-05
8.13051e-08
-6.26909e-07
-2.02995e-05
4.89613e-08
-6.75231e-07
-1.88876e-05
5.29398e-09
-6.40832e-07
-1.74179e-05
-4.24103e-08
-5.46265e-07
-1.59439e-05
-9.04836e-08
-4.28932e-07
-1.45106e-05
-1.33128e-07
-3.1838e-07
-1.31473e-05
-1.65347e-07
-2.08488e-07
-1.18609e-05
-1.95533e-07
-8.85235e-08
-1.06337e-05
-2.15649e-07
3.90536e-08
-9.42135e-06
-2.1593e-07
1.79957e-07
-8.18754e-06
-1.99227e-07
3.2708e-07
-6.89503e-06
-1.66111e-07
5.14107e-07
-5.54387e-06
-1.30157e-07
7.80871e-07
-4.06165e-06
-7.47787e-08
1.14497e-06
-2.34157e-06
2.46936e-09
1.5777e-06
-3.13152e-07
9.95116e-08
1.943e-06
1.85178e-06
1.94034e-07
2.17603e-06
4.54256e-06
2.81498e-07
2.1871e-06
7.48484e-06
3.2088e-07
1.94394e-06
1.05276e-05
3.00775e-07
1.51654e-06
1.36364e-05
2.37345e-07
1.0072e-06
1.67025e-05
1.64706e-07
5.42028e-07
1.9055e-05
1.10701e-07
1.71547e-07
1.98384e-05
7.96385e-08
-4.6221e-08
1.85714e-05
4.73538e-08
1.04655e-05
1.47942e-09
-3.99376e-08
-7.87377e-06
1.07504e-07
-2.48354e-07
-1.75162e-05
2.33022e-07
-5.01886e-07
-2.21304e-05
2.59943e-07
-7.35088e-07
-2.39306e-05
2.33432e-07
-9.42926e-07
-2.45369e-05
2.03645e-07
-1.12702e-06
-2.45854e-05
1.76543e-07
-1.29477e-06
-2.42602e-05
1.58484e-07
-1.45481e-06
-2.36305e-05
1.50936e-07
-1.56653e-06
-2.27468e-05
1.26566e-07
-1.60089e-06
-2.16697e-05
1.04463e-07
-1.53949e-06
-2.0443e-05
8.19895e-08
-1.37768e-06
-1.91046e-05
5.5156e-08
-1.12788e-06
-1.76878e-05
1.99051e-08
-8.22229e-07
-1.62268e-05
-2.2853e-08
-5.03567e-07
-1.4759e-05
-7.03115e-08
-2.13171e-07
-1.33216e-05
-1.16272e-07
2.25519e-08
-1.19474e-05
-1.49335e-07
1.96009e-07
-1.06394e-05
-1.67803e-07
3.33244e-07
-9.3721e-06
-1.86597e-07
4.58367e-07
-8.11778e-06
-1.94995e-07
5.85522e-07
-6.83868e-06
-1.8362e-07
7.24169e-07
-5.52618e-06
-1.56464e-07
9.08115e-07
-4.12717e-06
-1.18567e-07
1.16842e-06
-2.5381e-06
-6.3953e-08
1.4957e-06
-6.52817e-07
1.21536e-08
1.79527e-06
1.45364e-06
9.8325e-08
2.04922e-06
4.09339e-06
1.94971e-07
2.0959e-06
7.17451e-06
2.63399e-07
1.89503e-06
1.04517e-05
2.76627e-07
1.48608e-06
1.38076e-05
2.3753e-07
9.86787e-07
1.70269e-05
1.74741e-07
5.39391e-07
1.93815e-05
1.20797e-07
1.91089e-07
2.01011e-05
8.53569e-08
-9.49421e-09
1.87236e-05
4.80671e-08
1.04521e-05
3.9461e-09
-2.20936e-07
-7.78121e-06
1.28065e-07
-5.9389e-07
-1.74025e-05
2.58971e-07
-9.8838e-07
-2.20236e-05
2.87529e-07
-1.33667e-06
-2.38493e-05
2.66869e-07
-1.62605e-06
-2.44879e-05
2.40304e-07
-1.86409e-06
-2.4565e-05
2.17543e-07
-2.05019e-06
-2.42759e-05
2.01607e-07
-2.15591e-06
-2.37121e-05
1.87146e-07
-2.15845e-06
-2.29284e-05
1.84004e-07
-2.05767e-06
-2.19555e-05
1.84958e-07
-1.8586e-06
-2.08258e-05
1.83553e-07
-1.56933e-06
-1.95679e-05
1.73883e-07
-1.20131e-06
-1.8208e-05
1.52068e-07
-7.74507e-07
-1.67703e-05
1.16525e-07
-3.21362e-07
-1.52811e-05
6.87282e-08
1.15392e-07
-1.37717e-05
1.31346e-08
4.88598e-07
-1.22779e-05
-4.29396e-08
7.70775e-07
-1.08298e-05
-9.20376e-08
9.62087e-07
-9.44132e-06
-1.22276e-07
1.0799e-06
-8.10036e-06
-1.35402e-07
1.16884e-06
-6.78164e-06
-1.46167e-07
1.25459e-06
-5.46726e-06
-1.44882e-07
1.35038e-06
-4.09927e-06
-1.23929e-07
1.47839e-06
-2.58034e-06
-8.6042e-08
1.64026e-06
-7.84805e-07
-3.02159e-08
1.80451e-06
1.24791e-06
4.10951e-08
2.01054e-06
3.75919e-06
1.27766e-07
2.05472e-06
6.92015e-06
2.09791e-07
1.8539e-06
1.04033e-05
2.48791e-07
1.44455e-06
1.39837e-05
2.33009e-07
9.53668e-07
1.73345e-05
1.82937e-07
5.30519e-07
1.96722e-05
1.32194e-07
2.08094e-07
2.03289e-05
9.4376e-08
2.12942e-08
1.88559e-05
5.40611e-08
1.04607e-05
1.26074e-08
-3.00049e-07
-7.62704e-06
1.45431e-07
-8.33299e-07
-1.71322e-05
2.62743e-07
-1.37254e-06
-2.17684e-05
2.8383e-07
-1.81011e-06
-2.36748e-05
2.62891e-07
-2.13512e-06
-2.43973e-05
2.34332e-07
-2.3541e-06
-2.45539e-05
2.07784e-07
-2.46637e-06
-2.43711e-05
2.07387e-07
-2.46845e-06
-2.39254e-05
2.15233e-07
-2.37466e-06
-2.3251e-05
2.28639e-07
-2.1907e-06
-2.23835e-05
2.43808e-07
-1.92236e-06
-2.13518e-05
2.57478e-07
-1.57895e-06
-2.01776e-05
2.6611e-07
-1.171e-06
-1.88817e-05
2.6552e-07
-7.09884e-07
-1.74837e-05
2.52092e-07
-2.11155e-07
-1.60035e-05
2.23497e-07
3.00016e-07
-1.44627e-05
1.79619e-07
7.85426e-07
-1.28868e-05
1.23366e-07
1.20167e-06
-1.13074e-05
6.12063e-08
1.51524e-06
-9.75723e-06
2.11978e-09
1.72155e-06
-8.26109e-06
-4.57993e-08
1.83695e-06
-6.82578e-06
-7.14848e-08
1.88536e-06
-5.4335e-06
-8.23841e-08
1.90337e-06
-4.03068e-06
-8.68389e-08
1.90995e-06
-2.51444e-06
-7.27671e-08
1.91814e-06
-7.56133e-07
-3.72025e-08
1.96298e-06
1.18654e-06
1.61469e-08
2.02443e-06
3.6097e-06
8.76324e-08
2.00867e-06
6.76578e-06
1.69731e-07
1.80209e-06
1.03849e-05
2.24664e-07
1.41333e-06
1.41451e-05
2.27015e-07
9.52599e-07
1.76051e-05
1.8995e-07
5.57179e-07
1.9923e-05
1.44429e-07
2.4976e-07
2.053e-05
1.06022e-07