/*--------------------------------*- C++ -*----------------------------------*\
| =========                 |                                                 |
| \\      /  F ield         | OpenFOAM: The Open Source CFD Toolbox           |
|  \\    /   O peration     | Version:  2.3.x                                 |
|   \\  /    A nd           | Web:      www.OpenFOAM.org                      |
|    \\/     M anipulation  |                                                 |
\*---------------------------------------------------------------------------*/
FoamFile
{
    version     2.0;
    format      ascii;
    class       surfaceScalarField;
    location    "900";
    object      phi;
}
// * * * * * * * * * * * * * * * * * * * * * * * * * * * * * * * * * * * * * //

dimensions      [1 0 -1 0 0 0 0];

internalField   nonuniform List<scalar> 
228225
(
-4.70509e-06
2.97697e-06
1.69651e-06
-1.11991e-05
3.55459e-06
2.93943e-06
-1.69421e-05
2.59839e-06
3.14461e-06
-2.10419e-05
1.01257e-06
3.08721e-06
-2.26632e-05
-1.35028e-06
2.97164e-06
-2.22063e-05
-3.27817e-06
2.82126e-06
-1.9871e-05
-5.04571e-06
2.71039e-06
-1.60034e-05
-6.46589e-06
2.59826e-06
-1.09656e-05
-7.55429e-06
2.51655e-06
-5.24909e-06
-8.18611e-06
2.46958e-06
7.35558e-07
-8.43898e-06
2.45434e-06
6.73883e-06
-8.45381e-06
2.45055e-06
1.2649e-05
-8.36842e-06
2.45827e-06
1.83323e-05
-8.1532e-06
2.46987e-06
2.37178e-05
-7.91338e-06
2.52793e-06
2.87703e-05
-7.61428e-06
2.56178e-06
3.34112e-05
-7.23223e-06
2.59136e-06
3.76319e-05
-6.80122e-06
2.58047e-06
4.13129e-05
-6.25048e-06
2.56956e-06
4.4427e-05
-5.67255e-06
2.55844e-06
4.6977e-05
-5.1244e-06
2.57438e-06
4.88015e-05
-4.42038e-06
2.59587e-06
5.00118e-05
-3.82132e-06
2.61109e-06
5.05298e-05
-3.1568e-06
2.63873e-06
5.03442e-05
-2.48108e-06
2.66676e-06
4.94049e-05
-1.7619e-06
2.70115e-06
4.76912e-05
-1.02752e-06
2.74127e-06
4.51745e-05
-2.71091e-07
2.78775e-06
4.15437e-05
7.9056e-07
2.84027e-06
3.71595e-05
1.48005e-06
2.90416e-06
3.17256e-05
2.45711e-06
2.97682e-06
2.50988e-05
3.54432e-06
3.08244e-06
1.71434e-05
4.7555e-06
3.19996e-06
7.96327e-06
5.98967e-06
3.1905e-06
5.93523e-06
2.02803e-06
9.34993e-07
1.03252e-06
1.00944e-06
8.13765e-07
1.66696e-06
2.00883e-06
5.15473e-07
5.48226e-07
2.34843e-06
1.20737e-06
-2.02154e-06
2.34218e-06
3.01228e-06
-5.3369e-06
2.18169e-06
5.72681e-06
-8.00566e-06
2.01294e-06
9.08787e-06
-1.02292e-05
1.8224e-06
1.26941e-05
-1.17023e-05
1.63021e-06
1.62044e-05
-1.25212e-05
1.45662e-06
1.95613e-05
-1.28913e-05
1.3483e-06
2.27624e-05
-1.29264e-05
1.28625e-06
2.57775e-05
-1.27135e-05
1.2446e-06
2.85886e-05
-1.24133e-05
1.23385e-06
3.11931e-05
-1.19916e-05
1.23382e-06
3.3511e-05
-1.14439e-05
1.21258e-06
3.55194e-05
-1.08094e-05
1.1867e-06
3.72611e-05
-1.01342e-05
1.16029e-06
3.8556e-05
-9.26661e-06
1.17053e-06
3.94682e-05
-8.36694e-06
1.20428e-06
4.00091e-05
-7.45433e-06
1.2408e-06
4.02244e-05
-6.59271e-06
1.25309e-06
4.02358e-05
-5.70346e-06
1.27167e-06
3.98936e-05
-4.77757e-06
1.29844e-06
3.92113e-05
-3.81055e-06
1.33605e-06
3.81449e-05
-2.80498e-06
1.39034e-06
3.67273e-05
-1.7873e-06
1.44293e-06
3.48955e-05
-7.18738e-07
1.52302e-06
3.23959e-05
5.99707e-07
1.62881e-06
2.95341e-05
1.86475e-06
1.7877e-06
2.60484e-05
3.02318e-06
1.94255e-06
2.18252e-05
4.52408e-06
2.15625e-06
1.67212e-05
6.26854e-06
2.37981e-06
1.05743e-05
8.3364e-06
2.566e-06
4.18272e-06
9.84957e-06
2.53168e-06
8.56981e-06
1.54815e-06
7.3623e-07
-4.16254e-07
7.12507e-07
3.39402e-06
-2.33797e-06
1.3471e-06
7.7903e-06
-5.37722e-06
1.52912e-06
1.29312e-05
-8.65535e-06
1.49284e-06
1.75668e-05
-1.13524e-05
1.37989e-06
2.15551e-05
-1.31862e-05
1.19216e-06
2.45636e-05
-1.42716e-05
1.03396e-06
2.67119e-05
-1.47776e-05
9.26937e-07
2.8119e-05
-1.48109e-05
8.82569e-07
2.90342e-05
-1.46796e-05
8.73046e-07
2.96958e-05
-1.44534e-05
8.65555e-07
3.02375e-05
-1.41075e-05
8.52156e-07
3.06348e-05
-1.36466e-05
8.35965e-07
3.08988e-05
-1.30648e-05
8.09146e-07
3.10578e-05
-1.23696e-05
7.66749e-07
3.10728e-05
-1.15714e-05
7.46972e-07
3.09164e-05
-1.07036e-05
7.25743e-07
3.06998e-05
-9.78883e-06
7.388e-07
3.04491e-05
-8.85595e-06
7.39745e-07
3.01282e-05
-7.8738e-06
7.40401e-07
2.96304e-05
-6.84227e-06
7.47328e-07
2.89363e-05
-5.77184e-06
7.62437e-07
2.80412e-05
-4.67076e-06
7.88359e-07
2.69455e-05
-3.54273e-06
8.27919e-07
2.56676e-05
-2.39411e-06
8.67e-07
2.41751e-05
-1.21629e-06
9.21468e-07
2.23054e-05
1.48987e-07
1.00202e-06
2.03482e-05
1.43054e-06
1.12637e-06
1.83819e-05
2.57997e-06
1.25113e-06
1.59843e-05
4.02204e-06
1.39873e-06
1.32003e-05
5.73959e-06
1.56849e-06
9.78057e-06
7.88793e-06
1.80038e-06
5.74413e-06
1.02896e-05
2.08329e-06
2.04886e-06
1.15112e-05
2.03372e-06
9.4447e-06
1.17396e-06
4.38778e-07
-1.35132e-06
4.96188e-07
2.93775e-06
-5.63001e-06
7.9296e-07
6.61829e-06
-9.78804e-06
7.30191e-07
1.02165e-05
-1.28529e-05
5.99337e-07
1.30676e-05
-1.46825e-05
4.78962e-07
1.51043e-05
-1.56077e-05
3.84806e-07
1.64816e-05
-1.60076e-05
3.58626e-07
1.74307e-05
-1.61194e-05
3.92691e-07
1.83259e-05
-1.60659e-05
3.59791e-07
1.91981e-05
-1.58687e-05
3.16916e-07
1.99596e-05
-1.54987e-05
2.83765e-07
2.05874e-05
-1.49968e-05
2.61592e-07
2.10777e-05
-1.43797e-05
2.42781e-07
2.14543e-05
-1.36689e-05
2.2747e-07
2.17456e-05
-1.28758e-05
2.14954e-07
2.1978e-05
-1.20095e-05
2.05678e-07
2.21114e-05
-1.10529e-05
2.15837e-07
2.21788e-05
-1.00611e-05
2.04865e-07
2.20907e-05
-8.97648e-06
2.08559e-07
2.18133e-05
-7.81926e-06
2.2279e-07
2.13439e-05
-6.61599e-06
2.43163e-07
2.06967e-05
-5.39443e-06
2.6973e-07
1.9903e-05
-4.17268e-06
2.9553e-07
1.89882e-05
-2.95602e-06
3.28082e-07
1.79321e-05
-1.71503e-06
3.76955e-07
1.66354e-05
-3.67293e-07
4.47661e-07
1.53205e-05
9.08787e-07
5.55002e-07
1.40684e-05
2.01674e-06
6.65868e-07
1.24971e-05
3.34518e-06
8.06021e-07
1.07322e-05
4.77375e-06
1.0132e-06
8.70675e-06
6.51745e-06
1.24748e-06
6.20297e-06
8.90794e-06
1.48372e-06
3.40635e-06
1.13977e-05
1.68846e-06
9.35258e-07
1.23871e-05
1.59502e-06
9.59999e-06
7.79962e-07
1.25856e-06
-2.85297e-06
2.42941e-07
3.88463e-06
-8.6091e-06
3.52904e-07
6.62954e-06
-1.28922e-05
3.59198e-07
8.81894e-06
-1.53947e-05
3.52257e-07
1.04322e-05
-1.66298e-05
3.34007e-07
1.17201e-05
-1.72114e-05
3.15767e-07
1.28836e-05
-1.74524e-05
2.81165e-07
1.39915e-05
-1.74698e-05
2.42504e-07
1.49812e-05
-1.72761e-05
2.20516e-07
1.58464e-05
-1.69252e-05
1.91235e-07
1.65728e-05
-1.63779e-05
1.52718e-07
1.71655e-05
-1.57055e-05
1.15989e-07
1.76182e-05
-1.49189e-05
8.64007e-08
1.79254e-05
-1.40392e-05
6.30478e-08
1.80738e-05
-1.30682e-05
4.39862e-08
1.80485e-05
-1.20122e-05
2.80401e-08
1.78498e-05
-1.08692e-05
1.49393e-08
1.74294e-05
-9.643e-06
2.21587e-09
1.68066e-05
-8.34368e-06
-1.00027e-08
1.60208e-05
-7.01275e-06
-2.07582e-08
1.51325e-05
-5.70043e-06
-2.72555e-08
1.42038e-05
-4.44041e-06
-2.54258e-08
1.32787e-05
-3.23398e-06
-1.36214e-08
1.23699e-05
-2.04983e-06
2.50859e-09
1.14681e-05
-8.52336e-07
3.91264e-08
1.07104e-05
2.91521e-07
9.8815e-08
1.01854e-05
1.26047e-06
1.73327e-07
9.51052e-06
2.41634e-06
2.75185e-07
8.72081e-06
3.70555e-06
4.293e-07
7.64218e-06
5.23464e-06
6.17703e-07
6.11824e-06
7.1755e-06
8.65848e-07
4.1937e-06
9.70254e-06
1.12991e-06
2.14115e-06
1.2117e-05
1.33312e-06
4.2481e-07
1.28576e-05
1.24585e-06
9.43771e-06
5.87087e-07
7.80354e-07
-3.82722e-06
1.93687e-07
2.25306e-06
-1.0385e-05
3.03032e-07
3.59982e-06
-1.45618e-05
3.22635e-07
4.67804e-06
-1.67648e-05
2.91828e-07
5.57677e-06
-1.77646e-05
2.35944e-07
6.33498e-06
-1.81577e-05
1.8802e-07
6.96955e-06
-1.82283e-05
1.4132e-07
7.49294e-06
-1.80958e-05
1.02593e-07
7.91588e-06
-1.77684e-05
6.93368e-08
8.234e-06
-1.72855e-05
4.212e-08
8.49784e-06
-1.66649e-05
2.30976e-08
8.69812e-06
-1.59087e-05
2.93517e-09
8.82254e-06
-1.50263e-05
-1.70772e-08
8.86164e-06
-1.40428e-05
-3.55175e-08
8.8213e-06
-1.29688e-05
-5.90466e-08
8.68626e-06
-1.17895e-05
-8.78104e-08
8.44231e-06
-1.05051e-05
-1.20276e-07
8.08791e-06
-9.13705e-06
-1.51643e-07
7.64503e-06
-7.72065e-06
-1.80248e-07
7.15013e-06
-6.31391e-06
-2.0405e-07
6.64941e-06
-4.98079e-06
-2.19031e-07
6.18178e-06
-3.75034e-06
-2.22555e-07
5.7838e-06
-2.62111e-06
-2.15008e-07
5.48372e-06
-1.54844e-06
-2.01432e-07
5.29438e-06
-4.90537e-07
-1.72578e-07
5.26838e-06
4.42643e-07
-1.25249e-07
5.2199e-06
1.36853e-06
-5.97213e-08
5.15495e-06
2.45335e-06
2.7774e-08
4.97757e-06
3.74056e-06
1.42178e-07
4.56047e-06
5.35274e-06
2.98788e-07
3.73918e-06
7.47067e-06
5.25937e-07
2.44665e-06
1.01527e-05
8.42251e-07
1.07272e-06
1.24573e-05
1.03354e-06
-1.92989e-08
1.29937e-05
9.55616e-07
9.00493e-06
4.13479e-07
6.91366e-07
-4.61025e-06
9.1388e-08
1.49102e-06
-1.13516e-05
1.66817e-07
2.04706e-06
-1.53189e-05
2.00943e-07
2.38683e-06
-1.73131e-05
2.08462e-07
2.65881e-06
-1.82299e-05
1.93251e-07
2.94084e-06
-1.86107e-05
1.70867e-07
3.24053e-06
-1.86709e-05
1.42814e-07
3.5332e-06
-1.85016e-05
1.13046e-07
3.81708e-06
-1.8136e-05
8.36292e-08
4.0814e-06
-1.76043e-05
5.44256e-08
4.3086e-06
-1.69178e-05
2.5646e-08
4.48858e-06
-1.60867e-05
-2.07699e-09
4.61706e-06
-1.51255e-05
-2.9369e-08
4.68451e-06
-1.40522e-05
-5.81773e-08
4.67691e-06
-1.2883e-05
-7.83436e-08
4.60858e-06
-1.16311e-05
-9.01701e-08
4.51711e-06
-1.03079e-05
-1.0575e-07
4.43798e-06
-8.92981e-06
-1.28207e-07
4.38624e-06
-7.51485e-06
-1.54165e-07
4.3555e-06
-6.10346e-06
-1.79829e-07
4.31945e-06
-4.74306e-06
-2.01789e-07
4.25399e-06
-3.46773e-06
-2.17275e-07
4.15637e-06
-2.29842e-06
-2.25189e-07
4.06679e-06
-1.23183e-06
-2.27154e-07
4.04489e-06
-2.52617e-07
-2.16138e-07
4.04955e-06
6.29625e-07
-1.91745e-07
4.06954e-06
1.50095e-06
-1.52525e-07
4.06784e-06
2.5507e-06
-9.57758e-08
3.98205e-06
3.8377e-06
-1.14985e-08
3.70034e-06
5.51728e-06
1.17024e-07
3.0698e-06
7.78381e-06
3.17257e-07
2.08702e-06
1.05677e-05
5.67615e-07
1.02059e-06
1.27695e-05
7.54016e-07
1.64593e-07
1.31522e-05
6.97302e-07
8.89476e-06
2.74749e-07
3.20256e-07
-5.04781e-06
1.17008e-07
6.59514e-07
-1.19153e-05
2.24191e-07
8.80297e-07
-1.58042e-05
2.64425e-07
9.97664e-07
-1.76931e-05
2.62443e-07
1.07591e-06
-1.85475e-05
2.39278e-07
1.15495e-06
-1.88998e-05
2.09984e-07
1.24362e-06
-1.89382e-05
1.78564e-07
1.33283e-06
-1.87403e-05
1.49395e-07
1.42322e-06
-1.83496e-05
1.23157e-07
1.51677e-06
-1.77965e-05
9.85429e-08
1.62259e-06
-1.70987e-05
7.4937e-08
1.75189e-06
-1.62685e-05
5.23941e-08
1.91058e-06
-1.53144e-05
3.0113e-08
2.09275e-06
-1.42415e-05
7.05109e-09
2.28975e-06
-1.30611e-05
-1.9036e-08
2.49959e-06
-1.17921e-05
-4.89662e-08
2.71722e-06
-1.04484e-05
-7.7323e-08
2.93569e-06
-9.04001e-06
-1.08431e-07
3.14608e-06
-7.58313e-06
-1.42258e-07
3.33116e-06
-6.11308e-06
-1.75626e-07
3.47198e-06
-4.67925e-06
-2.04814e-07
3.55593e-06
-3.32428e-06
-2.27577e-07
3.58223e-06
-2.0808e-06
-2.44095e-07
3.56939e-06
-9.66941e-07
-2.5223e-07
3.54684e-06
1.56895e-08
-2.45908e-07
3.58387e-06
8.15377e-07
-2.22949e-07
3.56765e-06
1.70557e-06
-1.88588e-07
3.53494e-06
2.72289e-06
-1.39688e-07
3.45072e-06
3.98792e-06
-6.62246e-08
3.20226e-06
5.7194e-06
4.60902e-08
2.63665e-06
8.13836e-06
2.10821e-07
1.78112e-06
1.10147e-05
4.0836e-07
8.77043e-07
1.31095e-05
5.63834e-07
1.49297e-07
1.33335e-05
5.46169e-07
8.83568e-06
2.08369e-07
-6.57775e-08
-5.08704e-06
1.04728e-07
-2.21852e-07
-1.19463e-05
1.8682e-07
-4.03577e-07
-1.58397e-05
2.16975e-07
-5.75632e-07
-1.77479e-05
2.26747e-07
-7.38668e-07
-1.86076e-05
2.23053e-07
-8.86529e-07
-1.89621e-05
2.10106e-07
-1.00121e-06
-1.90177e-05
1.94079e-07
-1.07108e-06
-1.88491e-05
1.78599e-07
-1.09538e-06
-1.84905e-05
1.65067e-07
-1.08165e-06
-1.79644e-05
1.54056e-07
-1.03496e-06
-1.72897e-05
1.44299e-07
-9.56448e-07
-1.64826e-05
1.3549e-07
-8.41007e-07
-1.55577e-05
1.27819e-07
-6.75782e-07
-1.45273e-05
1.20407e-07
-4.49854e-07
-1.33985e-05
1.114e-07
-1.63359e-07
-1.21767e-05
9.80668e-08
1.80455e-07
-1.087e-05
7.77228e-08
5.80596e-07
-9.48887e-06
4.85761e-08
1.03397e-06
-8.04659e-06
9.93517e-09
1.52061e-06
-6.5632e-06
-3.66884e-08
2.00288e-06
-5.07516e-06
-8.65341e-08
2.44004e-06
-3.6281e-06
-1.33513e-07
2.80295e-06
-2.27078e-06
-1.73117e-07
3.07346e-06
-1.04354e-06
-1.94072e-07
3.25367e-06
3.96586e-08
-2.04336e-07
3.37644e-06
8.89473e-07
-1.9702e-07
3.43107e-06
1.82914e-06
-1.78374e-07
3.40916e-06
2.88906e-06
-1.44462e-07
3.27974e-06
4.21073e-06
-9.36027e-08
2.98424e-06
6.0244e-06
-9.73701e-09
2.46288e-06
8.53702e-06
1.22474e-07
1.71875e-06
1.14696e-05
2.89076e-07
9.13792e-07
1.34943e-05
4.20014e-07
2.14523e-07
1.3619e-05
4.13515e-07
8.88514e-06
1.65056e-07
-8.49123e-08
-5.1044e-06
1.01968e-07
-2.38589e-07
-1.19622e-05
1.69419e-07
-3.99869e-07
-1.58652e-05
1.867e-07
-5.44712e-07
-1.78045e-05
2.01307e-07
-6.67208e-07
-1.86925e-05
2.07242e-07
-7.66115e-07
-1.9071e-05
2.07714e-07
-8.35038e-07
-1.91488e-05
1.99964e-07
-8.67021e-07
-1.90057e-05
1.88528e-07
-8.56076e-07
-1.86782e-05
1.76673e-07
-7.97182e-07
-1.81899e-05
1.6652e-07
-6.86359e-07
-1.75593e-05
1.58624e-07
-5.21808e-07
-1.68004e-05
1.53192e-07
-3.06009e-07
-1.59248e-05
1.51135e-07
-4.40563e-08
-1.49423e-05
1.52991e-07
2.61195e-07
-1.38623e-05
1.58408e-07
6.10867e-07
-1.26922e-05
1.65703e-07
1.00702e-06
-1.14378e-05
1.71475e-07
1.44929e-06
-1.01042e-05
1.72898e-07
1.93656e-06
-8.69797e-06
1.63953e-07
2.46191e-06
-7.22955e-06
1.40842e-07
2.9994e-06
-5.71431e-06
1.01503e-07
3.5025e-06
-4.17838e-06
4.70049e-08
3.90939e-06
-2.66079e-06
-1.708e-08
4.15488e-06
-1.21001e-06
-7.9206e-08
4.21544e-06
1.03666e-07
-1.2473e-07
4.19031e-06
1.05758e-06
-1.43147e-07
4.0759e-06
2.09096e-06
-1.4759e-07
3.8864e-06
3.21237e-06
-1.33993e-07
3.5988e-06
4.59533e-06
-9.72219e-08
3.17929e-06
6.47548e-06
-3.17996e-08
2.5828e-06
9.05786e-06
7.54454e-08
1.81907e-06
1.20193e-05
2.13825e-07
1.01196e-06
1.39763e-05
3.24922e-07
2.98723e-07
1.40034e-05
3.28576e-07
9.041e-06
1.42855e-07
-1.22483e-07
-5.06508e-06
8.29085e-08
-2.54861e-07
-1.19349e-05
1.04877e-07
-3.42453e-07
-1.58795e-05
1.01757e-07
-3.82773e-07
-1.78804e-05
1.16097e-07
-3.94385e-07
-1.88186e-05
1.37597e-07
-3.76123e-07
-1.92377e-05
1.4842e-07
-3.19453e-07
-1.93565e-05
1.5095e-07
-2.17689e-07
-1.9256e-05
1.48404e-07
-6.89553e-08
-1.89707e-05
1.43733e-07
1.26359e-07
-1.85244e-05
1.39104e-07
3.65226e-07
-1.79339e-05
1.35737e-07
6.44428e-07
-1.72134e-05
1.33742e-07
9.59263e-07
-1.63734e-05
1.33721e-07
1.30251e-06
-1.54223e-05
1.36623e-07
1.66512e-06
-1.43684e-05
1.43413e-07
2.03839e-06
-1.32203e-05
1.54736e-07
2.416e-06
-1.1986e-05
1.70481e-07
2.79447e-06
-1.06718e-05
1.89066e-07
3.1722e-06
-9.28353e-06
2.07716e-07
3.55155e-06
-7.82908e-06
2.20048e-07
3.9351e-06
-6.31816e-06
2.20148e-07
4.31653e-06
-4.76212e-06
2.02138e-07
4.66267e-06
-3.17017e-06
1.63055e-07
4.90041e-06
-1.55228e-06
1.04358e-07
4.96327e-06
7.12228e-09
3.35104e-08
4.90524e-06
1.12599e-06
-1.05617e-08
4.68954e-06
2.35234e-06
-4.58587e-08
4.34491e-06
3.61922e-06
-6.24284e-08
3.90489e-06
5.09168e-06
-5.65639e-08
3.36685e-06
7.03492e-06
-2.16284e-08
2.70742e-06
9.66366e-06
5.34203e-08
1.93071e-06
1.26342e-05
1.61687e-07
1.11787e-06
1.45342e-05
2.54687e-07
3.78749e-07
1.44761e-05
2.66192e-07
9.29299e-06
1.26756e-07
-2.36061e-08
-5.09834e-06
5.66394e-08
2.89392e-08
-1.20369e-05
4.93083e-08
1.74045e-07
-1.6049e-05
2.42779e-08
3.582e-07
-1.80983e-05
3.36714e-08
5.43394e-07
-1.90686e-05
6.48198e-08
7.262e-07
-1.95102e-05
8.96284e-08
9.13874e-07
-1.96489e-05
1.04651e-07
1.1151e-06
-1.9568e-05
1.10757e-07
1.3333e-06
-1.93002e-05
1.11244e-07
1.57021e-06
-1.88701e-05
1.08726e-07
1.82505e-06
-1.82941e-05
1.05211e-07
2.09783e-06
-1.75877e-05
1.01456e-07
2.38984e-06
-1.67636e-05
9.81234e-08
2.69762e-06
-1.5827e-05
9.68691e-08
3.01625e-06
-1.47862e-05
9.90799e-08
3.34089e-06
-1.36509e-05
1.05905e-07
3.66682e-06
-1.24302e-05
1.18224e-07
3.98903e-06
-1.11304e-05
1.36334e-07
4.30159e-06
-9.75619e-06
1.60022e-07
4.5983e-06
-8.31277e-06
1.86881e-07
4.87463e-06
-6.80652e-06
2.11943e-07
5.12395e-06
-5.24081e-06
2.29267e-07
5.32934e-06
-3.60729e-06
2.31609e-07
5.45675e-06
-1.89068e-06
2.10875e-07
5.47471e-06
-1.74141e-07
1.63187e-07
5.38979e-06
1.09018e-06
1.20626e-07
5.14461e-06
2.5268e-06
7.06018e-08
4.74174e-06
3.99146e-06
3.05076e-08
4.20712e-06
5.61681e-06
9.35809e-09
3.56229e-06
7.6645e-06
1.51262e-08
2.81368e-06
1.03536e-05
5.85291e-08
1.98161e-06
1.33293e-05
1.36885e-07
1.1372e-06
1.51664e-05
2.12107e-07
3.71126e-07
1.50152e-05
2.26774e-07
9.5476e-06
1.16509e-07
7.15789e-08
-5.19194e-06
2.18674e-08
3.19423e-07
-1.22584e-05
-2.64516e-08
6.47658e-07
-1.63137e-05
-6.36804e-08
9.66818e-07
-1.83625e-05
-5.49528e-08
1.25752e-06
-1.93362e-05
-2.31881e-08
1.52138e-06
-1.97856e-05
1.15134e-08
1.76684e-06
-1.99329e-05
3.85427e-08
2.00269e-06
-1.98604e-05
5.64969e-08
2.23315e-06
-1.9598e-05
6.72687e-08
2.46097e-06
-1.9171e-05
7.30737e-08
2.68681e-06
-1.85956e-05
7.57103e-08
2.9126e-06
-1.789e-05
7.6477e-08
3.14436e-06
-1.70713e-05
7.58716e-08
3.36807e-06
-1.61264e-05
7.57042e-08
3.57987e-06
-1.50752e-05
7.7166e-08
3.78307e-06
-1.39353e-05
8.11567e-08
3.98374e-06
-1.27194e-05
8.85001e-08
4.18638e-06
-1.14332e-05
1.00104e-07
4.39057e-06
-1.00776e-05
1.17201e-07
4.59257e-06
-8.65401e-06
1.39171e-07
4.79089e-06
-7.16984e-06
1.64936e-07
4.97579e-06
-5.61806e-06
1.92269e-07
5.12864e-06
-3.97635e-06
2.16108e-07
5.22839e-06
-2.219e-06
2.28469e-07
5.25392e-06
-4.20247e-07
2.20475e-07
5.18077e-06
9.62397e-07
2.00811e-07
4.98966e-06
2.55848e-06
1.59304e-07
4.62875e-06
4.24189e-06
1.10343e-07
4.10267e-06
6.07397e-06
6.87797e-08
3.42755e-06
8.29094e-06
4.85406e-08
2.63455e-06
1.1083e-05
6.34955e-08
1.78991e-06
1.40579e-05
1.15898e-07
9.8457e-07
1.57968e-05
1.7486e-07
2.80937e-07
1.55306e-05
1.88071e-07
9.73019e-06
9.83462e-08
1.41376e-07
-5.33485e-06
1.46442e-09
4.72603e-07
-1.25287e-05
-6.09511e-08
8.85496e-07
-1.66198e-05
-1.06814e-07
1.29403e-06
-1.86615e-05
-1.09613e-07
1.66715e-06
-1.96209e-05
-8.84445e-08
2.00189e-06
-2.00614e-05
-5.90392e-08
2.30606e-06
-2.0204e-05
-3.30432e-08
2.58877e-06
-2.01302e-05
-1.29105e-08
2.85531e-06
-1.9866e-05
1.44691e-09
3.10871e-06
-1.94357e-05
1.13657e-08
3.34761e-06
-1.88525e-05
1.80065e-08
3.56056e-06
-1.81248e-05
2.18013e-08
3.72819e-06
-1.72611e-05
2.21657e-08
3.8587e-06
-1.62833e-05
2.6427e-08
3.9657e-06
-1.5215e-05
3.28211e-08
4.06287e-06
-1.40735e-05
4.09569e-08
4.1608e-06
-1.2868e-05
5.06884e-08
4.26518e-06
-1.16002e-05
6.25746e-08
4.38256e-06
-1.02736e-05
7.85526e-08
4.51305e-06
-8.88374e-06
9.92552e-08
4.64685e-06
-7.42661e-06
1.2297e-07
4.77231e-06
-5.89384e-06
1.50318e-07
4.87485e-06
-4.2593e-06
1.8041e-07
4.94194e-06
-2.4954e-06
2.0931e-07
4.94188e-06
-6.48929e-07
2.28737e-07
4.82858e-06
8.43681e-07
2.32012e-07
4.65919e-06
2.51205e-06
2.15818e-07
4.32123e-06
4.40222e-06
1.77634e-07
3.80749e-06
6.45719e-06
1.3052e-07
3.14005e-06
8.86686e-06
9.15122e-08
2.36893e-06
1.17737e-05
8.03981e-08
1.57936e-06
1.47404e-05
1.07088e-07
8.50784e-07
1.63766e-05
1.48782e-07
2.28141e-07
1.59962e-05
1.57042e-07
9.87636e-06
8.19689e-08
1.71117e-07
-5.48279e-06
-2.31232e-08
5.98843e-07
-1.28458e-05
-1.1062e-07
1.14263e-06
-1.6996e-05
-1.67576e-07
1.68083e-06
-1.90264e-05
-1.73222e-07
2.17075e-06
-1.99576e-05
-1.53168e-07
2.60577e-06
-2.03706e-05
-1.2574e-07
2.99098e-06
-2.04876e-05
-1.01629e-07
3.33466e-06
-2.03915e-05
-8.23284e-08
3.63768e-06
-2.0101e-05
-6.79789e-08
3.89923e-06
-1.96403e-05
-5.69234e-08
4.11667e-06
-1.90223e-05
-4.76405e-08
4.27542e-06
-1.8246e-05
-3.74839e-08
4.35887e-06
-1.732e-05
-2.45143e-08
4.3956e-06
-1.63097e-05
-1.03121e-08
4.4072e-06
-1.52305e-05
3.9731e-09
4.4073e-06
-1.40894e-05
1.58526e-08
4.40304e-06
-1.289e-05
2.62846e-08
4.39918e-06
-1.16361e-05
3.98191e-08
4.40338e-06
-1.03299e-05
5.21703e-08
4.4224e-06
-8.96963e-06
6.68819e-08
4.45419e-06
-7.54448e-06
8.60888e-08
4.49651e-06
-6.04653e-06
1.10374e-07
4.54586e-06
-4.44903e-06
1.40384e-07
4.59591e-06
-2.71742e-06
1.71971e-07
4.62999e-06
-8.84677e-07
2.01666e-07
4.4434e-06
8.12533e-07
2.17723e-07
4.29832e-06
2.43647e-06
2.20645e-07
4.02407e-06
4.47337e-06
2.03082e-07
3.57855e-06
6.7354e-06
1.6728e-07
2.98557e-06
9.3329e-06
1.26909e-07
2.29259e-06
1.23641e-05
1.02524e-07
1.55951e-06
1.5363e-05
1.10439e-07
8.5465e-07
1.69432e-05
1.38246e-07
2.4126e-07
1.64694e-05
1.40165e-07
1.00469e-05
7.07541e-08
2.23893e-07
-5.65976e-06
-4.67837e-08
7.50945e-07
-1.32247e-05
-1.48048e-07
1.40599e-06
-1.74427e-05
-2.08214e-07
2.05215e-06
-1.94537e-05
-2.18774e-07
2.64263e-06
-2.03449e-05
-2.03109e-07
3.16675e-06
-2.07165e-05
-1.78163e-07
3.62369e-06
-2.07893e-05
-1.55172e-07
4.01821e-06
-2.06497e-05
-1.3627e-07
4.34504e-06
-2.0305e-05
-1.22736e-07
4.59939e-06
-1.97817e-05
-1.13012e-07
4.77373e-06
-1.90904e-05
-1.06235e-07
4.86898e-06
-1.82437e-05
-9.75346e-08
4.91428e-06
-1.72872e-05
-7.79688e-08
4.92426e-06
-1.62554e-05
-6.42757e-08
4.9073e-06
-1.51616e-05
-5.18882e-08
4.86858e-06
-1.4014e-05
-3.65781e-08
4.81343e-06
-1.28171e-05
-1.77583e-08
4.75121e-06
-1.15744e-05
5.40595e-10
4.68399e-06
-1.02836e-05
2.09868e-08
4.61895e-06
-8.94549e-06
4.0983e-08
4.56662e-06
-7.55324e-06
6.11667e-08
4.53218e-06
-6.09363e-06
8.16208e-08
4.52339e-06
-4.54469e-06
1.04525e-07
4.54672e-06
-2.87482e-06
1.34169e-07
4.58986e-06
-1.09314e-06
1.6543e-07
4.4338e-06
7.78166e-07
1.90528e-07
4.2808e-06
2.38687e-06
2.02709e-07
4.03111e-06
4.5253e-06
1.97882e-07
3.60849e-06
6.98462e-06
1.73502e-07
3.00246e-06
9.80144e-06
1.3759e-07
2.2609e-06
1.29966e-05
1.09235e-07
1.48515e-06
1.60321e-05
1.06659e-07
7.81426e-07
1.75211e-05
1.25889e-07
2.02421e-07
1.69227e-05
1.25825e-07
1.01895e-05
5.97493e-08
2.64698e-07
-5.86239e-06
-6.18497e-08
8.82754e-07
-1.36775e-05
-1.65141e-07
1.63974e-06
-1.7974e-05
-2.25563e-07
2.38622e-06
-1.9958e-05
-2.42106e-07
3.07573e-06
-2.08004e-05
-2.3401e-07
3.69695e-06
-2.11219e-05
-2.15829e-07
4.24573e-06
-2.11402e-05
-1.97883e-07
4.72301e-06
-2.09445e-05
-1.82454e-07
5.12189e-06
-2.05312e-05
-1.72611e-07
5.42936e-06
-1.9922e-05
-1.67097e-07
5.62707e-06
-1.91236e-05
-1.64468e-07
5.73206e-06
-1.81917e-05
-1.56945e-07
5.77098e-06
-1.71665e-05
-1.59647e-07
5.74308e-06
-1.60693e-05
-1.58146e-07
5.6598e-06
-1.49271e-05
-1.5118e-07
5.53866e-06
-1.37549e-05
-1.37868e-07
5.39487e-06
-1.25545e-05
-1.18738e-07
5.23574e-06
-1.13214e-05
-9.37499e-08
5.07173e-06
-1.00551e-05
-6.44162e-08
4.91328e-06
-8.75471e-06
-3.22723e-08
4.77034e-06
-7.41166e-06
1.42637e-09
4.6446e-06
-6.00391e-06
3.60889e-08
4.53556e-06
-4.50518e-06
6.96077e-08
4.44669e-06
-2.88773e-06
1.0186e-07
4.3522e-06
-1.13214e-06
1.33574e-07
4.21741e-06
7.51465e-07
1.61558e-07
4.00358e-06
2.4231e-06
1.7768e-07
3.69436e-06
4.65241e-06
1.82184e-07
3.22137e-06
7.29416e-06
1.6352e-07
2.55386e-06
1.03413e-05
1.27692e-07
1.76757e-06
1.36896e-05
9.32956e-08
1.04009e-06
1.66789e-05
8.07501e-08
4.71261e-07
1.80005e-05
8.95013e-08
6.79401e-08
1.72406e-05
8.54667e-08
1.02263e-05
3.11601e-08
3.51302e-07
-6.13434e-06
-7.9092e-08
1.10709e-06
-1.42511e-05
-1.82021e-07
1.99333e-06
-1.86206e-05
-2.3955e-07
2.85395e-06
-2.05573e-05
-2.61219e-07
3.64821e-06
-2.13346e-05
-2.59959e-07
4.36524e-06
-2.15905e-05
-2.48335e-07
5.00221e-06
-2.15413e-05
-2.35738e-07
5.53502e-06
-2.12523e-05
-2.24992e-07
5.95274e-06
-2.07284e-05
-2.2045e-07
6.2337e-06
-1.99822e-05
-2.20684e-07
6.39792e-06
-1.90662e-05
-2.2148e-07
6.46495e-06
-1.80236e-05
-2.34969e-07
6.43085e-06
-1.68873e-05
-2.44983e-07
6.31521e-06
-1.57036e-05
-2.49915e-07
6.14135e-06
-1.45047e-05
-2.48462e-07
5.9296e-06
-1.33032e-05
-2.39889e-07
5.6932e-06
-1.20941e-05
-2.23856e-07
5.43661e-06
-1.08639e-05
-2.00889e-07
5.16397e-06
-9.61075e-06
-1.71642e-07
4.88669e-06
-8.33987e-06
-1.3746e-07
4.6235e-06
-7.04879e-06
-9.95898e-08
4.38744e-06
-5.7086e-06
-5.91456e-08
4.17346e-06
-4.27478e-06
-1.63129e-08
3.95418e-06
-2.69682e-06
2.8514e-08
3.70216e-06
-9.54123e-07
7.41502e-08
3.54911e-06
7.87271e-07
1.1739e-07
3.31436e-06
2.50977e-06
1.48234e-07
2.98633e-06
4.81493e-06
1.65678e-07
2.53701e-06
7.58305e-06
1.60581e-07
1.96468e-06
1.07828e-05
1.31019e-07
1.34191e-06
1.42189e-05
9.36271e-08
7.96033e-07
1.71521e-05
7.2745e-08
3.61243e-07
1.83639e-05
7.14172e-08
4.67645e-08
1.74956e-05
5.96391e-08
1.02555e-05
1.76216e-08
4.21056e-07
-6.47076e-06
-8.43664e-08
1.25233e-06
-1.49143e-05
-1.67924e-07
2.174e-06
-1.9324e-05
-2.18187e-07
3.05181e-06
-2.11848e-05
-2.50274e-07
3.85936e-06
-2.18801e-05
-2.61958e-07
4.58383e-06
-2.2053e-05
-2.61889e-07
5.21608e-06
-2.19178e-05
-2.55724e-07
5.72019e-06
-2.1504e-05
-2.52256e-07
6.06675e-06
-2.0822e-05
-2.52901e-07
6.27587e-06
-1.99313e-05
-2.59913e-07
6.35638e-06
-1.88724e-05
-2.74213e-07
6.30887e-06
-1.76873e-05
-2.88761e-07
6.16859e-06
-1.64446e-05
-3.0228e-07
5.97475e-06
-1.51975e-05
-3.12214e-07
5.75675e-06
-1.39702e-05
-3.16427e-07
5.53052e-06
-1.27632e-05
-3.13745e-07
5.30118e-06
-1.15611e-05
-3.03654e-07
5.06475e-06
-1.03414e-05
-2.85922e-07
4.81272e-06
-9.09762e-06
-2.61008e-07
4.54347e-06
-7.84046e-06
-2.30096e-07
4.26631e-06
-6.57689e-06
-1.94665e-07
3.99349e-06
-5.28042e-06
-1.55274e-07
3.736e-06
-3.90574e-06
-1.11447e-07
3.49685e-06
-2.39572e-06
-6.18504e-08
3.27134e-06
-7.20852e-07
-7.66628e-09
3.16711e-06
8.51758e-07
3.98592e-08
2.97588e-06
2.61806e-06
8.30594e-08
2.71777e-06
4.95244e-06
1.20736e-07
2.39107e-06
7.77124e-06
1.38627e-07
1.99606e-06
1.10487e-05
1.29155e-07
1.54466e-06
1.45681e-05
1.02211e-07
1.0609e-06
1.75539e-05
8.20246e-08
5.77471e-07
1.87692e-05
7.82881e-08
1.56484e-07
1.78546e-05
6.21311e-08
1.03982e-05
1.37891e-08
4.58909e-07
-6.85043e-06
-7.89799e-08
1.25498e-06
-1.55779e-05
-1.32327e-07
2.07609e-06
-1.99735e-05
-1.71473e-07
2.83584e-06
-2.17332e-05
-2.11204e-07
3.52882e-06
-2.23381e-05
-2.34903e-07
4.1427e-06
-2.24194e-05
-2.47449e-07
4.65252e-06
-2.21752e-05
-2.52399e-07
5.01999e-06
-2.16127e-05
-2.5877e-07
5.26027e-06
-2.07884e-05
-2.73793e-07
5.36088e-06
-1.97407e-05
-2.91114e-07
5.31571e-06
-1.85156e-05
-3.11574e-07
5.16629e-06
-1.72051e-05
-3.32718e-07
4.96591e-06
-1.58931e-05
-3.51039e-07
4.75698e-06
-1.46243e-05
-3.64155e-07
4.56351e-06
-1.34056e-05
-3.71073e-07
4.39319e-06
-1.22213e-05
-3.7149e-07
4.24352e-06
-1.1046e-05
-3.6528e-07
4.10671e-06
-9.85233e-06
-3.52228e-07
3.96762e-06
-8.62604e-06
-3.32422e-07
3.81717e-06
-7.38318e-06
-3.06751e-07
3.65827e-06
-6.14157e-06
-2.76345e-07
3.50055e-06
-4.88094e-06
-2.41669e-07
3.36392e-06
-3.56677e-06
-2.02247e-07
3.27968e-06
-2.1546e-06
-1.56786e-07
3.26015e-06
-5.96129e-07
-1.05085e-07
3.24431e-06
9.25556e-07
-5.78552e-08
3.1389e-06
2.73491e-06
-1.13066e-08
2.95571e-06
5.09853e-06
3.723e-08
2.66569e-06
7.98675e-06
7.46329e-08
2.24677e-06
1.13782e-05
8.96113e-08
1.70134e-06
1.50308e-05
8.28655e-08
1.10212e-06
1.80816e-05
7.16246e-08
5.4789e-07
1.92516e-05
7.18388e-08
1.14593e-07
1.82306e-05
5.73956e-08
1.05128e-05
-4.34036e-11
4.03648e-07
-7.19286e-06
-6.10002e-08
1.03755e-06
-1.61318e-05
-7.98267e-08
1.65274e-06
-2.0479e-05
-1.09539e-07
2.2114e-06
-2.21349e-05
-1.56888e-07
2.72239e-06
-2.26573e-05
-1.91815e-07
3.17716e-06
-2.26576e-05
-2.16495e-07
3.54766e-06
-2.23113e-05
-2.34312e-07
3.80872e-06
-2.16167e-05
-2.56932e-07
3.94088e-06
-2.06443e-05
-2.76206e-07
3.92509e-06
-1.94239e-05
-3.00994e-07
3.79667e-06
-1.80577e-05
-3.29396e-07
3.61318e-06
-1.6664e-05
-3.57543e-07
3.42476e-06
-1.5323e-05
-3.81655e-07
3.26178e-06
-1.40618e-05
-3.99464e-07
3.13602e-06
-1.28694e-05
-4.10294e-07
3.04704e-06
-1.1718e-05
-4.14261e-07
2.98801e-06
-1.05754e-05
-4.11584e-07
2.94911e-06
-9.41112e-06
-4.02255e-07
2.91523e-06
-8.20588e-06
-3.86217e-07
2.87438e-06
-6.97793e-06
-3.64332e-07
2.82745e-06
-5.7568e-06
-3.37781e-07
2.78252e-06
-4.5289e-06
-3.0704e-07
2.75741e-06
-3.26964e-06
-2.71959e-07
2.78031e-06
-1.94558e-06
-2.31845e-07
2.85934e-06
-4.89032e-07
-1.86045e-07
2.90388e-06
1.02371e-06
-1.42594e-07
2.80918e-06
2.92701e-06
-9.73058e-08
2.57123e-06
5.38723e-06
-5.06464e-08
2.13964e-06
8.43008e-06
-1.16311e-08
1.52413e-06
1.19825e-05
1.13035e-08
8.50001e-07
1.56885e-05
1.64574e-08
3.3114e-07
1.85877e-05
1.28108e-08
4.97632e-09
1.95641e-05
1.37284e-08
-1.21553e-07
1.83563e-05
9.40134e-10
1.04166e-05
-2.53173e-08
2.77847e-07
-7.43852e-06
-3.20444e-08
6.77443e-07
-1.65192e-05
-1.21608e-08
1.04807e-06
-2.08192e-05
-3.04064e-08
1.39097e-06
-2.23947e-05
-8.30851e-08
1.71392e-06
-2.28519e-05
-1.28294e-07
2.0052e-06
-2.27857e-05
-1.63206e-07
2.22799e-06
-2.23434e-05
-1.90684e-07
2.38489e-06
-2.15523e-05
-2.21346e-07
2.43564e-06
-2.04411e-05
-2.53937e-07
2.39163e-06
-1.90894e-05
-2.90413e-07
2.28722e-06
-1.76247e-05
-3.28616e-07
2.16138e-06
-1.61737e-05
-3.64346e-07
2.04443e-06
-1.48121e-05
-3.93942e-07
1.953e-06
-1.35545e-05
-4.15832e-07
1.89221e-06
-1.23786e-05
-4.30046e-07
1.85991e-06
-1.12484e-05
-4.37201e-07
1.85029e-06
-1.01278e-05
-4.37846e-07
1.85599e-06
-8.98463e-06
-4.32147e-07
1.86713e-06
-7.79699e-06
-4.19981e-07
1.86955e-06
-6.57832e-06
-4.02002e-07
1.8605e-06
-5.36832e-06
-3.79384e-07
1.84251e-06
-4.1585e-06
-3.5236e-07
1.82257e-06
-2.92899e-06
-3.20668e-07
1.813e-06
-1.65212e-06
-2.83843e-07
1.81757e-06
-2.52599e-07
-2.40948e-07
1.77488e-06
1.26242e-06
-1.95965e-07
1.62303e-06
3.22255e-06
-1.43622e-07
1.36434e-06
5.73722e-06
-9.124e-08
9.65132e-07
8.88113e-06
-5.17803e-08
4.6137e-07
1.25205e-05
-3.42743e-08
1.19412e-08
1.61722e-05
-3.42388e-08
-2.08029e-07
1.88476e-05
-3.99105e-08
-2.61035e-07
1.96603e-05
-4.31349e-08
-1.92687e-07
1.83338e-05
-4.5823e-08
1.02774e-05
-5.35463e-08
1.75241e-07
-7.61033e-06
-3.37794e-09
3.88547e-07
-1.6784e-05
5.14996e-08
5.59608e-07
-2.10368e-05
4.65538e-08
7.24385e-07
-2.25548e-05
-4.69379e-09
8.95951e-07
-2.29698e-05
-5.35809e-08
1.06269e-06
-2.28565e-05
-9.58825e-08
1.1977e-06
-2.23426e-05
-1.35751e-07
1.29387e-06
-2.14752e-05
-1.73206e-07
1.35044e-06
-2.02845e-05
-2.13185e-07
1.37088e-06
-1.88524e-05
-2.57455e-07
1.36173e-06
-1.73122e-05
-3.03327e-07
1.3331e-06
-1.57991e-05
-3.45993e-07
1.29685e-06
-1.43941e-05
-3.81717e-07
1.26587e-06
-1.31146e-05
-4.0894e-07
1.24921e-06
-1.1934e-05
-4.27881e-07
1.25039e-06
-1.08102e-05
-4.39413e-07
1.26855e-06
-9.70166e-06
-4.4433e-07
1.30113e-06
-8.57413e-06
-4.43068e-07
1.34389e-06
-7.40403e-06
-4.35706e-07
1.38322e-06
-6.19493e-06
-4.22706e-07
1.41218e-06
-4.99181e-06
-4.0545e-07
1.42904e-06
-3.79116e-06
-3.84188e-07
1.4318e-06
-2.5731e-06
-3.5863e-07
1.41519e-06
-1.30739e-06
-3.28095e-07
1.37025e-06
8.30943e-08
-2.90729e-07
1.28639e-06
1.59331e-06
-2.47003e-07
1.16643e-06
3.53361e-06
-1.91059e-07
1.02438e-06
6.00703e-06
-1.27734e-07
8.58952e-07