/*--------------------------------*- C++ -*----------------------------------*\
| =========                 |                                                 |
| \\      /  F ield         | OpenFOAM: The Open Source CFD Toolbox           |
|  \\    /   O peration     | Version:  2.3.x                                 |
|   \\  /    A nd           | Web:      www.OpenFOAM.org                      |
|    \\/     M anipulation  |                                                 |
\*---------------------------------------------------------------------------*/
FoamFile
{
    version     2.0;
    format      ascii;
    class       volScalarField;
    location    "900";
    object      T;
}
// * * * * * * * * * * * * * * * * * * * * * * * * * * * * * * * * * * * * * //

dimensions      [0 0 0 1 0 0 0];

internalField   nonuniform List<scalar> 
78750
(
288.809
289.638
289.935
289.999
290.011
290.037
290.101
290.174
290.247
290.317
290.38
290.434
290.484
290.53
290.574
290.615
290.653
290.688
290.72
290.749
290.775
290.798
290.818
290.834
290.848
290.857
290.864
290.866
290.865
290.865
290.865
290.873
290.996
292.464
300.264
288.545
289.106
289.338
289.409
289.485
289.648
289.823
289.989
290.137
290.266
290.383
290.497
290.605
290.708
290.804
290.891
290.97
291.042
291.109
291.168
291.22
291.262
291.297
291.325
291.345
291.358
291.359
291.355
291.332
291.293
291.232
291.209
291.391
293.408
300.807
288.323
288.635
288.893
289.161
289.44
289.743
290.016
290.245
290.43
290.591
290.736
290.866
290.982
291.085
291.176
291.258
291.331
291.394
291.448
291.492
291.529
291.559
291.582
291.598
291.605
291.605
291.599
291.582
291.555
291.518
291.497
291.577
292.465
295.14
301.493
288.396
288.864
289.314
289.745
290.105
290.347
290.533
290.689
290.827
290.947
291.05
291.141
291.225
291.302
291.375
291.442
291.504
291.56
291.609
291.651
291.685
291.711
291.729
291.74
291.74
291.736
291.721
291.698
291.671
291.654
291.694
292.092
293.541
296.498
302.339
288.425
288.969
289.467
289.874
290.17
290.393
290.573
290.727
290.865
290.991
291.11
291.223
291.328
291.429
291.521
291.604
291.676
291.738
291.788
291.826
291.853
291.871
291.879
291.879
291.874
291.861
291.842
291.818
291.795
291.799
291.907
292.538
294.312
297.405
302.955
288.499
289.16
289.713
290.117
290.396
290.602
290.773
290.925
291.064
291.193
291.315
291.43
291.534
291.625
291.705
291.775
291.834
291.88
291.912
291.929
291.934
291.931
291.922
291.911
291.898
291.886
291.877
291.874
291.89
291.98
292.296
293.223
295.169
298.292
303.638
288.511
289.184
289.736
290.137
290.413
290.619
290.789
290.941
291.08
291.21
291.332
291.448
291.556
291.656
291.744
291.823
291.889
291.942
291.979
292.003
292.012
292.012
292.003
291.991
291.977
291.966
291.961
291.972
292.027
292.196
292.661
293.782
295.823
298.918
304.042
288.546
289.258
289.814
290.203
290.47
290.672
290.844
290.999
291.142
291.277
291.402
291.518
291.626
291.724
291.813
291.888
291.951
292.001
292.039
292.064
292.076
292.078
292.074
292.067
292.061
292.062
292.072
292.108
292.204
292.448
293.042
294.317
296.39
299.421
304.356
288.551
289.264
289.819
290.207
290.473
290.675
290.847
291.002
291.146
291.28
291.405
291.522
291.631
291.729
291.819
291.901
291.973
292.034
292.084
292.12
292.142
292.154
292.157
292.158
292.161
292.171
292.197
292.258
292.394
292.706
293.399
294.773
296.855
299.816
304.571
288.551
289.262
289.815
290.203
290.469
290.672
290.845
291.001
291.145
291.28
291.405
291.522
291.631
291.732
291.824
291.906
291.98
292.045
292.102
292.149
292.188
292.216
292.236
292.251
292.266
292.289
292.33
292.411
292.581
292.948
293.721
295.172
297.247
300.139
304.744
288.547
289.249
289.799
290.188
290.458
290.664
290.839
290.996
291.141
291.276
291.403
291.521
291.631
291.734
291.827
291.911
291.986
292.053
292.112
292.163
292.208
292.247
292.281
292.313
292.346
292.387
292.447
292.552
292.753
293.165
293.999
295.502
297.561
300.384
304.862
288.541
289.24
289.791
290.184
290.456
290.664
290.84
290.998
291.146
291.284
291.415
291.538
291.652
291.759
291.856
291.944
292.023
292.092
292.152
292.203
292.247
292.285
292.321
292.357
292.4
292.453
292.53
292.657
292.888
293.338
294.219
295.761
297.806
300.576
304.956
288.541
289.241
289.797
290.196
290.474
290.686
290.866
291.028
291.179
291.321
291.456
291.583
291.702
291.813
291.915
292.007
292.089
292.16
292.222
292.274
292.317
292.353
292.385
292.419
292.46
292.516
292.603
292.751
293.012
293.506
294.439
296.02
298.047
300.763
305.05
288.547
289.26
289.827
290.231
290.511
290.725
290.906
291.07
291.222
291.366
291.503
291.632
291.753
291.866
291.97
292.065
292.15
292.224
292.289
292.344
292.39
292.428
292.461
292.493
292.531
292.587
292.679
292.844
293.141
293.692
294.693
296.317
298.311
300.954
305.144
288.554
289.281
289.856
290.264
290.546
290.763
290.947
291.113
291.267
291.413
291.552
291.685
291.811
291.927
292.033
292.128
292.213
292.289
292.354
292.411
292.46
292.502
292.537
292.572
292.61
292.665
292.756
292.926
293.242
293.83
294.878
296.53
298.499
301.089
305.208
288.563
289.306
289.894
290.307
290.592
290.81
290.998
291.168
291.328
291.48
291.625
291.763
291.891
292.008
292.113
292.206
292.289
292.362
292.426
292.482
292.53
292.573
292.612
292.65
292.693
292.751
292.843
293.01
293.325
293.917
294.981
296.657
298.617
301.177
305.254
288.577
289.344
289.948
290.368
290.656
290.876
291.067
291.242
291.407
291.564
291.715
291.856
291.986
292.102
292.206
292.296
292.375
292.445
292.505
292.558
292.605
292.647
292.687
292.728
292.777
292.845
292.954
293.143
293.494
294.133
295.249
296.952
298.867
301.345
305.335
288.589
289.38
290.001
290.428
290.72
290.945
291.141
291.321
291.493
291.659
291.816
291.962
292.094
292.211
292.312
292.399
292.473
292.537
292.593
292.642
292.685
292.725
292.764
292.805
292.857
292.932
293.053
293.273
293.677
294.391
295.575
297.284
299.133
301.52
305.411
288.609
289.435
290.078
290.512
290.807
291.036
291.238
291.426
291.608
291.784
291.949
292.101
292.234
292.348
292.444
292.524
292.59
292.647
292.696
292.739
292.777
292.813
292.85
292.89
292.939
293.009
293.127
293.349
293.766
294.506
295.715
297.423
299.244
301.596
305.439
288.631
289.495
290.16
290.6
290.898
291.133
291.343
291.543
291.737
291.923
292.097
292.252
292.385
292.495
292.585
292.658
292.718
292.768
292.811
292.849
292.883
292.916
292.951
292.99
293.038
293.103
293.21
293.41
293.797
294.519
295.729
297.44
299.265
301.613
305.45
288.656
289.555
290.235
290.676
290.974
291.213
291.431
291.641
291.846
292.041
292.22
292.377
292.508
292.615
292.701
292.772
292.83
292.879
292.921
292.958
292.992
293.026
293.062
293.105
293.16
293.236
293.355
293.564
293.954
294.67
295.892
297.633
299.431
301.727
305.508
288.678
289.608
290.298
290.738
291.036
291.278
291.502
291.72
291.933
292.135
292.317
292.472
292.6
292.705
292.791
292.862
292.922
292.974
293.019
293.059
293.096
293.132
293.172
293.22
293.285
293.381
293.54
293.814
294.288
295.088
296.348
298.026
299.735
301.945
305.6
288.693
289.644
290.343
290.784
291.083
291.33
291.56
291.785
292.004
292.21
292.393
292.548
292.675
292.78
292.867
292.939
293.001
293.056
293.105
293.15
293.192
293.232
293.276
293.327
293.393
293.491
293.656
293.95
294.468
295.323
296.605
298.238
299.895
302.056
305.636
288.704
289.668
290.37
290.81
291.11
291.359
291.593
291.821
292.044
292.255
292.443
292.604
292.736
292.844
292.934
293.009
293.074
293.132
293.185
293.235
293.283
293.331
293.381
293.439
293.51
293.608
293.761
294.027
294.509
295.345
296.631
298.28
299.939
302.09
305.65
288.714
289.692
290.397
290.835
291.133
291.382
291.616
291.843
292.066
292.277
292.473
292.644
292.785
292.9
292.995
293.074
293.142
293.204
293.261
293.316
293.369
293.424
293.483
293.552
293.64
293.76
293.94
294.232
294.727
295.563
296.85
298.466
300.092
302.212
305.703
288.718
289.699
290.404
290.841
291.141
291.391
291.624
291.849
292.067
292.277
292.474
292.654
292.813
292.942
293.046
293.133
293.207
293.272
293.334
293.393
293.451
293.51
293.575
293.651
293.749
293.886
294.098
294.442
295.003
295.888
297.168
298.714
300.278
302.349
305.751
288.72
289.702
290.405
290.841
291.141
291.392
291.625
291.849
292.067
292.276
292.473
292.654
292.818
292.963
293.083
293.181
293.263
293.336
293.402
293.467
293.53
293.595
293.664
293.744
293.842
293.976
294.181
294.517
295.079
295.973
297.255
298.785
300.33
302.379
305.757
288.722
289.703
290.405
290.841
291.141
291.391
291.623
291.843
292.054
292.257
292.453
292.639
292.811
292.964
293.098
293.215
293.31
293.392
293.465
293.536
293.606
293.678
293.756
293.846
293.956
294.099
294.304
294.626
295.159
296.03
297.308
298.834
300.374
302.418
305.776
288.722
289.702
290.399
290.833
291.132
291.38
291.606
291.819
292.023
292.219
292.41
292.597
292.777
292.945
293.096
293.227
293.343
293.439
293.522
293.6
293.677
293.757
293.844
293.947
294.077
294.25
294.494
294.858
295.426
296.308
297.564
299.025
300.519
302.536
305.823
288.718
289.69
290.383
290.815
291.114
291.36
291.583
291.792
291.991
292.182
292.366
292.546
292.724
292.899
293.066
293.218
293.351
293.468
293.569
293.658
293.742
293.828
293.921
294.03
294.168
294.358
294.634
295.046
295.668
296.583
297.819
299.212
300.654
302.636
305.856
288.714
289.679
290.37
290.803
291.102
291.347
291.567
291.771
291.963
292.147
292.324
292.496
292.667
292.838
293.008
293.176
293.332
293.471
293.593
293.703
293.801
293.897
293.997
294.109
294.249
294.437
294.707
295.114
295.739
296.66
297.892
299.266
300.692
302.658
305.861
288.711
289.672
290.359
290.792
291.09
291.333
291.549
291.748
291.935
292.111
292.28
292.445
292.609
292.773
292.939
293.109
293.278
293.441
293.59
293.723
293.845
293.959
294.074
294.202
294.356
294.558
294.836
295.246
295.867
296.785
298.01
299.359
300.765
302.719
305.886
288.706
289.66
290.345
290.78
291.079
291.321
291.535
291.731
291.913
292.084
292.247
292.404
292.559
292.714
292.872
293.035
293.204
293.376
293.548
293.71
293.858
293.997
294.132
294.279
294.456
294.686
295
295.448
296.099
297.025
298.223
299.517
300.883
302.814
305.922
288.702
289.649
290.334
290.772
291.073
291.316
291.53
291.724
291.903
292.07
292.227
292.377
292.523
292.668
292.814
292.966
293.126
293.295
293.472
293.653
293.831
294.001
294.162
294.326
294.518
294.765
295.103
295.584
296.266
297.206
298.384
299.633
300.963
302.865
305.933
288.697
289.638
290.323
290.766
291.071
291.314
291.528
291.721
291.9
292.065
292.22
292.365
292.503
292.637
292.771
292.908
293.055
293.213
293.384
293.569
293.765
293.964
294.158
294.348
294.554
294.805
295.143
295.623
296.311
297.253
298.425
299.661
300.977
302.865
305.927
288.691
289.628
290.319
290.765
291.071
291.315
291.528
291.722
291.9
292.065
292.22
292.365
292.502
292.634
292.762
292.889
293.016
293.152
293.306
293.483
293.681
293.9
294.127
294.353
294.588
294.853
295.186
295.65
296.32
297.259
298.432
299.668
300.982
302.867
305.928
288.689
289.628
290.322
290.775
291.085
291.331
291.545
291.739
291.916
292.08
292.233
292.377
292.513
292.642
292.767
292.891
293.015
293.143
293.28
293.431
293.615
293.836
294.084
294.351
294.636
294.951
295.323
295.808
296.487
297.418
298.579
299.783
301.067
302.931
305.953
288.691
289.637
290.345
290.808
291.126
291.377
291.593
291.788
291.966
292.131
292.284
292.427
292.561
292.687
292.807
292.923
293.039
293.157
293.283
293.423
293.586
293.782
294.028
294.317
294.641
295.009
295.446
295.992
296.711
297.652
298.781
299.931
301.179
303.018
305.983
288.698
289.66
290.38
290.851
291.174
291.428
291.649
291.847
292.03
292.2
292.357
292.503
292.639
292.766
292.885
292.998
293.106
293.214
293.326
293.448
293.589
293.761
293.975
294.248
294.585
294.984
295.453
296.035
296.785
297.736
298.845
299.967
301.193
303.015
305.976
288.705
289.682
290.413
290.889
291.214
291.472
291.697
291.9
292.087
292.26
292.421
292.572
292.712
292.843
292.965
293.08
293.189
293.295
293.401
293.513
293.637
293.785
293.971
294.21
294.514
294.903
295.393
295.998
296.764
297.727
298.842
299.968
301.193
303.005
305.966
288.714
289.708
290.45
290.931
291.262
291.524
291.751
291.956
292.144
292.319
292.481
292.632
292.774
292.907
293.033
293.15
293.262
293.369
293.476
293.586
293.706
293.846
294.019
294.238
294.518
294.892
295.375
295.987
296.764
297.73
298.847
299.975
301.197
303.01
305.97
288.729
289.747
290.501
290.987
291.319
291.585
291.817
292.025
292.216
292.393
292.556
292.709
292.852
292.986
293.112
293.231
293.344
293.451
293.555
293.661
293.776
293.914
294.089
294.315
294.604
294.972
295.447
296.053
296.834
297.821
298.955
300.069
301.28
303.098
306.015
288.741
289.779
290.543
291.032
291.369
291.641
291.878
292.092
292.289
292.47
292.638
292.795
292.941
293.078
293.206
293.328
293.443
293.552
293.656
293.759
293.868
293.996
294.164
294.395
294.709
295.121
295.643
296.295
297.112
298.103
299.195
300.251
301.43
303.226
306.065
288.754
289.81
290.58
291.07
291.41
291.685
291.927
292.147
292.349
292.535
292.708
292.868
293.018
293.159
293.292
293.418
293.537
293.651
293.759
293.863
293.967
294.082
294.225
294.423
294.713
295.123
295.667
296.351
297.19
298.181
299.247
300.28
301.44
303.22
306.057
288.765
289.836
290.612
291.102
291.443
291.721
291.967
292.191
292.396
292.585
292.76
292.922
293.074
293.217
293.354
293.485
293.611
293.733
293.85
293.963
294.073
294.187
294.315
294.479
294.713
295.076
295.596
296.284
297.137
298.143
299.226
300.272
301.435
303.211
306.046
288.772
289.854
290.633
291.124
291.467
291.749
291.999
292.227
292.435
292.626
292.802
292.965
293.117
293.261
293.398
293.531
293.66
293.787
293.912
294.035
294.157
294.282
294.419
294.577
294.779
295.084
295.583
296.264
297.126
298.143
299.229
300.274
301.438
303.217
306.051
288.779
289.871
290.655
291.147
291.493
291.778
292.033
292.265
292.478
292.672
292.851
293.016
293.169
293.312
293.45
293.582
293.712
293.841
293.969
294.098
294.231
294.373
294.536
294.729
294.964
295.265
295.686
296.318
297.174
298.213
299.312
300.337
301.499
303.309
306.104
288.787
289.891
290.68
291.174
291.521
291.81
292.07
292.306
292.524
292.723
292.905
293.073
293.228
293.373
293.512
293.645
293.775
293.903
294.03
294.159
294.292
294.44
294.616
294.843
295.14
295.521
296.01
296.655
297.494
298.497
299.541
300.521
301.661
303.456
306.164
288.793
289.906
290.699
291.195
291.544
291.837
292.099
292.34
292.56
292.763
292.948
293.119
293.278
293.427
293.569
293.706
293.839
293.971
294.1
294.228
294.358
294.499
294.665
294.882
295.183
295.598
296.142
296.832
297.681
298.659
299.66
300.603
301.713
303.477
306.164
288.798
289.92
290.718
291.215
291.565
291.859
292.124
292.366
292.589
292.793
292.98
293.153
293.313
293.464
293.609
293.75
293.889
294.027
294.163
294.296
294.428
294.564
294.717
294.908
295.177
295.565
296.102
296.803
297.664
298.648
299.653
300.597
301.7
303.449
306.141
288.802
289.933
290.737
291.238
291.592
291.888
292.155
292.4
292.624
292.829
293.016
293.189
293.349
293.501
293.646
293.789
293.931
294.074
294.218
294.36
294.501
294.645
294.798
294.976
295.21
295.565
296.083
296.782
297.652
298.643
299.65
300.597
301.699
303.446
306.14
288.809
289.951
290.761
291.266
291.623
291.923
292.193
292.44
292.666
292.872
293.06
293.232
293.393
293.545
293.691
293.834
293.977
294.122
294.268
294.416
294.567
294.724
294.896
295.092
295.332
295.648
296.107
296.787
297.657
298.651
299.662
300.607
301.712
303.471
306.157
288.813
289.962
290.778
291.287
291.648
291.952
292.225
292.474
292.7
292.906
293.094
293.267
293.429
293.582
293.73
293.876
294.021
294.168
294.316
294.467
294.623
294.79
294.98
295.207
295.493
295.86
296.343
296.982
297.827
298.821
299.815
300.738
301.833
303.581
306.207
288.815
289.971
290.793
291.307
291.673
291.982
292.259
292.51
292.737
292.942
293.128
293.298
293.458
293.61
293.758
293.905
294.053
294.202
294.353
294.507
294.665
294.833
295.024
295.261
295.569
295.975
296.504
297.179
298.013
298.96
299.907
300.8
301.873
303.602
306.209
288.816
289.973
290.797
291.318
291.695
292.012
292.296
292.553
292.782
292.987
293.172
293.34
293.496
293.645
293.79
293.935
294.082
294.232
294.386
294.541
294.7
294.864
295.047
295.27
295.564
295.956
296.484
297.166
297.999
298.938
299.878
300.768
301.835
303.555
306.183
288.816
289.973
290.796
291.319
291.701
292.031
292.324
292.588
292.822
293.031
293.217
293.385
293.541
293.688
293.832
293.977
294.124
294.276
294.433
294.592
294.753
294.918
295.093
295.298
295.565
295.938
296.446
297.121
297.958
298.904
299.858
300.759
301.82
303.526
306.167
288.817
289.973
290.795
291.318
291.701
292.036
292.338
292.609
292.849
293.061
293.249
293.419
293.576
293.725
293.869
294.015
294.165
294.322
294.487
294.659
294.836
295.015
295.2
295.401
295.641
295.965
296.45
297.12
297.959
298.908
299.864
300.763
301.824
303.534
306.176
288.817
289.973
290.793
291.313
291.699
292.036
292.347
292.625
292.871
293.087
293.277
293.448
293.605
293.754
293.898
294.042
294.193
294.354
294.528
294.716
294.916
295.127
295.35
295.587
295.851
296.175
296.612
297.237
298.069
299.025
299.962
300.841
301.907
303.635
306.227
288.817
289.97
290.782
291.299
291.688
292.034
292.352
292.638
292.89
293.11
293.302
293.474
293.632
293.78
293.924
294.067
294.215
294.375
294.55
294.744
294.961
295.204
295.473
295.77
296.099
296.483
296.962
297.591
298.388
299.284
300.159
301.003
302.056
303.764
306.28
288.813
289.961
290.771
291.286
291.675
292.027
292.355
292.651
292.908
293.129
293.322
293.494
293.651
293.799
293.942
294.083
294.229
294.385
294.556
294.747
294.964
295.214
295.503
295.839
296.227
296.679
297.214
297.862
298.628
299.464
300.284
301.094
302.122
303.8
306.286
288.811
289.957
290.765
291.28
291.672
292.03
292.369
292.674
292.938
293.161
293.351
293.52
293.675
293.82
293.961
294.101
294.244
294.395
294.559
294.74
294.943
295.178
295.459
295.799
296.207
296.686
297.248
297.911
298.668
299.479
300.282
301.081
302.1
303.774
306.27
288.81
289.954
290.761
291.274
291.667
292.034
292.383
292.701
292.974
293.2
293.39
293.555
293.706
293.849
293.988
294.126
294.268
294.417
294.578
294.752
294.942
295.154
295.405
295.71
296.087
296.558
297.132
297.806
298.567
299.375
300.18
300.987
301.996
303.656
306.209
288.813
289.965
290.772
291.281
291.671
292.038
292.397
292.731
293.014
293.245
293.435
293.598
293.745
293.885
294.021
294.159
294.302
294.454
294.618
294.797
294.987
295.189
295.42
295.704
296.059
296.504
297.061
297.736
298.512
299.344
300.17
300.981
301.989
303.65
306.209
288.815
289.968
290.774
291.283
291.671
292.037
292.398
292.741
293.045
293.288
293.482
293.645
293.789
293.926
294.06
294.197
294.341
294.497
294.671
294.865
295.075
295.299
295.538
295.801
296.118
296.529
297.068
297.742
298.524
299.366
300.188
300.995
302.007
303.678
306.231
288.819
289.971
290.774
291.282
291.672
292.037
292.398
292.742
293.052
293.314
293.518
293.685
293.829
293.963
294.095
294.229
294.372
294.531
294.712
294.922
295.161
295.426
295.707
296.005
296.342
296.752
297.274
297.936
298.715
299.529
300.316
301.103
302.115
303.782
306.28
288.819
289.972
290.774
291.277
291.662
292.022
292.38
292.729
293.048
293.32
293.543
293.718
293.866
293.998
294.126
294.257
294.396
294.551
294.731
294.947
295.207
295.508
295.837
296.185
296.562
296.995
297.522
298.165
298.905
299.677
300.43
301.2
302.206
303.863
306.311
288.818
289.964
290.759
291.26
291.638
291.989
292.336
292.682
293.013
293.305
293.545
293.739
293.895
294.03
294.156
294.282
294.415
294.562
294.734
294.944
295.205
295.521
295.882
296.28
296.707
297.18
297.721
298.351
299.06
299.797
300.524
301.277
302.266
303.901
306.32
288.813
289.95
290.743
291.242
291.616
291.956
292.289
292.622
292.951
293.258
293.524
293.74
293.914
294.057
294.185
294.307
294.434
294.571
294.73
294.924
295.17
295.482
295.859
296.282
296.744
297.253
297.822
298.457
299.15
299.866
300.575
301.314
302.286
303.901
306.316
288.806
289.932
290.721
291.221
291.591
291.923
292.242
292.558
292.876
293.189
293.476
293.721
293.917
294.077
294.211
294.334
294.456
294.585
294.729
294.901
295.116
295.395
295.755
296.195
296.697
297.241
297.823
298.464
299.156
299.867
300.574
301.312
302.281
303.889
306.305
288.796
289.908
290.693
291.191
291.559
291.884
292.191
292.493
292.796
293.101
293.401
293.674
293.902
294.085
294.235
294.364
294.486
294.61
294.744
294.898
295.085
295.323
295.633
296.032
296.519
297.082
297.709
298.381
299.082
299.789
300.491
301.226
302.187
303.79
306.257
288.787
289.887
290.67
291.17
291.535
291.854
292.152
292.441
292.728
293.019
293.315
293.603
293.863
294.079
294.252
294.395
294.523
294.648
294.778
294.922
295.093
295.306
295.577
295.925
296.365
296.899
297.515
298.194
298.913
299.651
300.388
301.143
302.108
303.716
306.223
288.781
289.874
290.656
291.158
291.524
291.839
292.131
292.411
292.685
292.96
293.241
293.526
293.803
294.049
294.251
294.416
294.556
294.687
294.82
294.963
295.13
295.33
295.58
295.903
296.313
296.819
297.417
298.098
298.843
299.613
300.372
301.134
302.101
303.712
306.223
288.778
289.868
290.653
291.157
291.522
291.835
292.124
292.398
292.664
292.926
293.19
293.463
293.738
294.001
294.231
294.421
294.58
294.721
294.86
295.011
295.185
295.39
295.638
295.942
296.326
296.817
297.411
298.095
298.844
299.617
300.375
301.137
302.107
303.725
306.232
288.776
289.866
290.656
291.164
291.529
291.84
292.127
292.399
292.662
292.92
293.175
293.431
293.694
293.958
294.203
294.416
294.593
294.746
294.893
295.05
295.232
295.451
295.719
296.046
296.444
296.921
297.497
298.176
298.93
299.704
300.452
301.205
302.176
303.793
306.263
288.775
289.867
290.666
291.182
291.551
291.863
292.149
292.419
292.678
292.931
293.179
293.428
293.68
293.935
294.183
294.409
294.599
294.76
294.911
295.071
295.255
295.478
295.758
296.108
296.537
297.047
297.643
298.321
299.056
299.804
300.534
301.275
302.235
303.833
306.276
288.774
289.874
290.687
291.212
291.587
291.902
292.19
292.461
292.722
292.975
293.219
293.457
293.694
293.934
294.175
294.404
294.603
294.771
294.924
295.08
295.257
295.47
295.743
296.096
296.538
297.063
297.67
298.351
299.081
299.821
300.544
301.282
302.238
303.832
306.274
288.777
289.891
290.719
291.253
291.633
291.953
292.247
292.528
292.798
293.06
293.31
293.545
293.768
293.986
294.205
294.421
294.618
294.787
294.941
295.095
295.261
295.456
295.695
296.005
296.416
296.942
297.566
298.26
298.991
299.724
300.443
301.184
302.137
303.725
306.219
288.791
289.936
290.781
291.321
291.706
292.034
292.336
292.626
292.908
293.183
293.445
293.687
293.907
294.111
294.308
294.5
294.677
294.84
294.994
295.143
295.299
295.474
295.693
295.971
296.332
296.798
297.381
298.063
298.807
299.577
300.338
301.099
302.059
303.663
306.195
288.815
290
290.858
291.401
291.792
292.127
292.439
292.739
293.035
293.327
293.608
293.866
294.092
294.291
294.472
294.642
294.802
294.954
295.101
295.245
295.396
295.56
295.752
295.997
296.333
296.786
297.354
298.032
298.79
299.575
300.338
301.098
302.059
303.665
306.2
288.846
290.071
290.934
291.475
291.867
292.209
292.529
292.843
293.156
293.469
293.768
294.038
294.269
294.465
294.637
294.795
294.945
295.091
295.234
295.382
295.538
295.711
295.907
296.143
296.441
296.842
297.38
298.052
298.818
299.605
300.358
301.113
302.085
303.719
306.235
288.879
290.141
291.007
291.543
291.937
292.285
292.612
292.93
293.245
293.561
293.877
294.17
294.416
294.613
294.778
294.926
295.07
295.215
295.365
295.525
295.702
295.9
296.127
296.393
296.718
297.131
297.663
298.316
299.048
299.791
300.51
301.248
302.218
303.843
306.294
288.898
290.176
291.033
291.563
291.956
292.303
292.627
292.94
293.251
293.567
293.884
294.188
294.459
294.684
294.863
295.017
295.165
295.314
295.471
295.644
295.843
296.073
296.341
296.654
297.022
297.463
297.996
298.618
299.298
299.988
300.668
301.388
302.356
303.966
306.344
288.901
290.179
291.036
291.565
291.957
292.304
292.628
292.935
293.231
293.531
293.839
294.15
294.443
294.692
294.894
295.066
295.221
295.372
295.53
295.708
295.916
296.164
296.459
296.807
297.211
297.676
298.208
298.805
299.443
300.092
300.744
301.45
302.404
303.996
306.347
288.902
290.183
291.041
291.571
291.964
292.31
292.632
292.933
293.22
293.496
293.781
294.082
294.386
294.663
294.896
295.09
295.258
295.414
295.572
295.746
295.948
296.191
296.487
296.843
297.262
297.742
298.279
298.865
299.485
300.116
300.755
301.448
302.394
303.98
306.338
288.906
290.195
291.055
291.586
291.981
292.329
292.649
292.944
293.22
293.485
293.752
294.033
294.329
294.619
294.878
295.099
295.287
295.456
295.619
295.793
295.99
296.224
296.506
296.85
297.266
297.746
298.283
298.869
299.488
300.117
300.755
301.447
302.387
303.967
306.328
288.906
290.197
291.06
291.594
291.992
292.342
292.663
292.957
293.228
293.482
293.732
293.991
294.271
294.562
294.841
295.089
295.301
295.487
295.663
295.846
296.049
296.286
296.571
296.913
297.318
297.791
298.325
298.908
299.519
300.139
300.768
301.453
302.391
303.971
306.331
288.908
290.206
291.072
291.609
292.01
292.364
292.687
292.98
293.247
293.493
293.73
293.972
294.229
294.508
294.791
295.058
295.293
295.496
295.686
295.878
296.089
296.333
296.623
296.973
297.389
297.869
298.404
298.979
299.575
300.179
300.796
301.474
302.406
303.978
306.332
288.91
290.216
291.088
291.629
292.036
292.396
292.723
293.017
293.28
293.519
293.744
293.971
294.212
294.469
294.742
295.013
295.262
295.482
295.682
295.879
296.087
296.326
296.612
296.96
297.378
297.863
298.4
298.972
299.562
300.159
300.772
301.449
302.38
303.952
306.319
288.914
290.231
291.109
291.657
292.071
292.44
292.772
293.068
293.329
293.563
293.781
293.994
294.217
294.457
294.714
294.975
295.224
295.455
295.666
295.869
296.077
296.306
296.573
296.897
297.291
297.759
298.292
298.868
299.469
300.083
300.709
301.389
302.314
303.886
306.285
288.92
290.252
291.135
291.688
292.112
292.491
292.831
293.13
293.39
293.619
293.831
294.039
294.255
294.488
294.736
294.987
295.23
295.46
295.672
295.873
296.078
296.304
296.564
296.876
297.255
297.711
298.242
298.83
299.449
300.074
300.703
301.383
302.309
303.884
306.285
288.929
290.273
291.159
291.717
292.152
292.542
292.889
293.191
293.45
293.676
293.882
294.084
294.299
294.537
294.799
295.064
295.322
295.561
295.777
295.975
296.166
296.366
296.598
296.885
297.257
297.711
298.243
298.833
299.454
300.079
300.706
301.386
302.314
303.892
306.294
288.939
290.296
291.184
291.749
292.196
292.599
292.957
293.261
293.518
293.739
293.937
294.129
294.333
294.567
294.838
295.135
295.43
295.7
295.937
296.149
296.348
296.551
296.777
297.049
297.385
297.814
298.336
298.926
299.541
300.152
300.767
301.444
302.383
303.968
306.332
288.943
290.307
291.197
291.769
292.229
292.648
293.016
293.325
293.58
293.795
293.985
294.166
294.355
294.573
294.835
295.142
295.468
295.777
296.051
296.29
296.512
296.733
296.971
297.249
297.591
298.015
298.521
299.086
299.675
300.265
300.868
301.542
302.478
304.047
306.364
288.945
290.312
291.206
291.786
292.26
292.696
293.076
293.389
293.643
293.853
294.036
294.206
294.379
294.574
294.81
295.104
295.444
295.783
296.092
296.371
296.626
296.876
297.137
297.428
297.771
298.182
298.664
299.202
299.766
300.339
300.932
301.602
302.537
304.095
306.382
288.946
290.314
291.21
291.798
292.287
292.741
293.135
293.454
293.707
293.912
294.087
294.247
294.404
294.574
294.779
295.044
295.378
295.744
296.089
296.398
296.69
296.974
297.267
297.585
297.942
298.352
298.818
299.331
299.871
300.426
301.006
301.663
302.585
304.125
306.388
288.945
290.316
291.214
291.809
292.313
292.787
293.195
293.52
293.772
293.974
294.144
294.294
294.438
294.587
294.758
294.976
295.27
295.633
296.017
296.377
296.694
297.002
297.318
297.659
298.034
298.452
298.914
299.411
299.935
300.478
301.049
301.697
302.605
304.127
306.387
288.944
290.316
291.22
291.823
292.343
292.838
293.26
293.59
293.842
294.04
294.203
294.347
294.479
294.611
294.754
294.927
295.16
295.478
295.862
296.258
296.634
296.981
297.318
297.665
298.046
298.466
298.926
299.419
299.938
300.478
301.048
301.696
302.598
304.11
306.372
288.945
290.323
291.232
291.843
292.379
292.896
293.334
293.67
293.921
294.115
294.273
294.409
294.534
294.653
294.776
294.916
295.098
295.352
295.696
296.098
296.507
296.895
297.268
297.644
298.035
298.458
298.918
299.409
299.928
300.468
301.041
301.689
302.59
304.096
306.363
288.946
290.329
291.242
291.86
292.411
292.949
293.405
293.75
294.003
294.194
294.348
294.478
294.596
294.706
294.815
294.934
295.078
295.274
295.553
295.927
296.357
296.791
297.207
297.613
298.025
298.454
298.913
299.405
299.924
300.465
301.037
301.686
302.587
304.092
306.361
288.948
290.338
291.256
291.879
292.439
292.997
293.47
293.826
294.083
294.274
294.425
294.552
294.665
294.77
294.87
294.974
295.092
295.243
295.453
295.752
296.143
296.589
297.043
297.487
297.925
298.376
298.846
299.337
299.851
300.39
300.962
301.61
302.506
304.014
306.322
288.953
290.356
291.28
291.906
292.474
293.045
293.532
293.899
294.162
294.354
294.505
294.631
294.741
294.842
294.937
295.032
295.136
295.262
295.432
295.666
295.979
296.372
296.817
297.28
297.748
298.223
298.714
299.227
299.764
300.323
300.908
301.562
302.46
303.978
306.309
288.964
290.388
291.322
291.954
292.529
293.111
293.607
293.978
294.242
294.434
294.584
294.709
294.818
294.918
295.012
295.105
295.204
295.321
295.471
295.676
295.955
296.304
296.719
297.18
297.664
298.163
298.677
299.209
299.758
300.321
300.907
301.561
302.461
303.982
306.314
288.982
290.434
291.382
292.023
292.609
293.2
293.699
294.067
294.328
294.516
294.663
294.784
294.89
294.989
295.083
295.175
295.274
295.391
295.542
295.741
295.997
296.323
296.722
297.178
297.663
298.166
298.689
299.229
299.782
300.347
300.932
301.586
302.492
304.021
306.334
289
290.479
291.439
292.09
292.688
293.291
293.794
294.161
294.416
294.599
294.739
294.855
294.959
295.055
295.145
295.235
295.334
295.454
295.613
295.823
296.089
296.414
296.8
297.24
297.724
298.239
298.769
299.311
299.861
300.42
301
301.652
302.556
304.078
306.361
289.018
290.52
291.492
292.148
292.749
293.36
293.874
294.246
294.5
294.677
294.812
294.925
295.025
295.115
295.201
295.288
295.387
295.508
295.668
295.883
296.158
296.492
296.88
297.314
297.789
298.295
298.823
299.363
299.909
300.462
301.037
301.685
302.588
304.104
306.369
289.03
290.549
291.531
292.189
292.789
293.401
293.925
294.309
294.57
294.748
294.881
294.99
295.085
295.169
295.25
295.334