/*--------------------------------*- C++ -*----------------------------------*\
| =========                 |                                                 |
| \\      /  F ield         | OpenFOAM: The Open Source CFD Toolbox           |
|  \\    /   O peration     | Version:  2.0.x                                 |
|   \\  /    A nd           | Web:      www.OpenFOAM.org                      |
|    \\/     M anipulation  |                                                 |
\*---------------------------------------------------------------------------*/
FoamFile
{
    version     2.0;
    format      ascii;
    class       volScalarField;
    location    "900";
    object      T;
}
// * * * * * * * * * * * * * * * * * * * * * * * * * * * * * * * * * * * * * //

dimensions      [0 0 0 1 0 0 0];

internalField   nonuniform List<scalar> 
78750
(
288.498
288.966
289.258
289.488
289.675
289.828
289.958
290.07
290.168
290.253
290.329
290.395
290.453
290.503
290.546
290.581
290.611
290.634
290.652
290.664
290.674
290.679
290.682
290.686
290.692
290.698
290.706
290.715
290.724
290.734
290.764
290.93
291.71
294.34
301.602
288.381
288.782
289.13
289.458
289.753
290.01
290.233
290.426
290.594
290.743
290.874
290.988
291.09
291.179
291.254
291.314
291.359
291.385
291.386
291.38
291.369
291.346
291.316
291.275
291.229
291.176
291.116
291.056
290.997
290.95
290.952
291.079
291.954
294.761
301.808
288.424
288.958
289.461
289.92
290.29
290.575
290.802
290.991
291.153
291.295
291.421
291.535
291.635
291.72
291.789
291.842
291.879
291.901
291.91
291.907
291.89
291.858
291.816
291.769
291.713
291.649
291.58
291.507
291.429
291.373
291.396
291.713
293.022
296.035
302.301
288.518
289.218
289.798
290.214
290.505
290.727
290.914
291.079
291.227
291.36
291.479
291.586
291.681
291.764
291.832
291.884
291.919
291.94
291.947
291.943
291.929
291.91
291.889
291.862
291.828
291.786
291.738
291.688
291.653
291.669
291.856
292.522
294.168
297.228
303.041
288.548
289.263
289.829
290.235
290.519
290.738
290.923
291.087
291.235
291.372
291.496
291.609
291.711
291.802
291.881
291.947
291.997
292.027
292.037
292.032
292.015
291.994
291.97
291.942
291.91
291.875
291.841
291.818
291.83
291.943
292.307
293.243
295.079
298.137
303.641
288.55
289.264
289.83
290.235
290.519
290.736
290.92
291.085
291.235
291.371
291.496
291.611
291.714
291.805
291.884
291.951
292.006
292.048
292.077
292.092
292.092
292.081
292.064
292.042
292.017
291.991
291.969
291.967
292.008
292.185
292.669
293.774
295.706
298.749
304.032
288.546
289.259
289.822
290.225
290.505
290.721
290.906
291.072
291.225
291.366
291.496
291.616
291.725
291.821
291.903
291.972
292.028
292.071
292.104
292.126
292.138
292.141
292.136
292.123
292.107
292.092
292.085
292.097
292.169
292.389
292.948
294.157
296.147
299.172
304.276
288.542
289.259
289.839
290.255
290.542
290.763
290.954
291.128
291.29
291.443
291.585
291.715
291.83
291.928
292.008
292.07
292.116
292.148
292.17
292.185
292.195
292.202
292.207
292.208
292.206
292.203
292.207
292.234
292.327
292.579
293.195
294.479
296.501
299.5
304.46
288.561
289.32
289.928
290.36
290.657
290.887
291.087
291.271
291.444
291.608
291.762
291.903
292.028
292.132
292.21
292.263
292.296
292.31
292.309
292.301
292.289
292.281
292.279
292.281
292.286
292.296
292.316
292.363
292.48
292.769
293.442
294.794
296.838
299.808
304.635
288.589
289.389
290.007
290.428
290.721
290.952
291.155
291.342
291.518
291.685
291.843
291.991
292.126
292.246
292.347
292.421
292.463
292.474
292.463
292.44
292.411
292.385
292.371
292.369
292.378
292.397
292.434
292.506
292.662
293.009
293.76
295.185
297.221
300.122
304.809
288.61
289.418
290.018
290.432
290.723
290.953
291.156
291.343
291.518
291.685
291.843
291.991
292.126
292.247
292.351
292.437
292.504
292.552
292.57
292.558
292.528
292.497
292.475
292.468
292.477
292.504
292.555
292.651
292.846
293.251
294.078
295.568
297.582
300.398
304.952
288.614
289.419
290.015
290.418
290.699
290.922
291.118
291.299
291.469
291.629
291.781
291.925
292.06
292.186
292.301
292.402
292.487
292.551
292.598
292.625
292.629
292.612
292.593
292.584
292.594
292.627
292.692
292.814
293.047
293.509
294.403
295.936
297.907
300.624
305.056
288.599
289.375
289.948
290.339
290.61
290.822
291.006
291.172
291.327
291.472
291.612
291.746
291.878
292.007
292.135
292.26
292.377
292.477
292.56
292.622
292.665
292.689
292.695
292.696
292.707
292.743
292.819
292.961
293.226
293.734
294.681
296.242
298.166
300.791
305.125
288.58
289.337
289.92
290.321
290.596
290.806
290.986
291.149
291.3
291.441
291.576
291.702
291.822
291.935
292.041
292.141
292.242
292.347
292.451
292.549
292.632
292.697
292.744
292.777
292.807
292.853
292.937
293.093
293.384
293.931
294.923
296.499
298.378
300.924
305.172
288.576
289.335
289.92
290.327
290.606
290.819
291.001
291.165
291.318
291.462
291.598
291.727
291.846
291.954
292.052
292.142
292.227
292.309
292.391
292.473
292.558
292.644
292.725
292.798
292.86
292.927
293.024
293.189
293.491
294.056
295.071
296.658
298.51
301.004
305.196
288.584
289.369
289.987
290.417
290.706
290.925
291.113
291.285
291.447
291.601
291.747
291.88
291.995
292.089
292.166
292.231
292.291
292.349
292.41
292.476
292.546
292.622
292.706
292.795
292.884
292.98
293.104
293.296
293.628
294.231
295.284
296.88
298.697
301.136
305.256
288.617
289.467
290.138
290.597
290.904
291.138
291.342
291.53
291.71
291.882
292.039
292.172
292.275
292.349
292.398
292.43
292.455
292.479
292.507
292.543
292.588
292.645
292.715
292.798
292.894
293.008
293.157
293.372
293.728
294.358
295.438
297.039
298.83
301.228
305.295
288.644
289.545
290.254
290.741
291.073
291.334
291.563
291.778
291.982
292.171
292.337
292.47
292.567
292.628
292.657
292.665
292.664
292.662
292.664
292.674
292.695
292.729
292.777
292.842
292.928
293.045
293.209
293.449
293.836
294.5
295.612
297.221
298.987
301.343
305.351
288.671
289.611
290.336
290.823
291.16
291.428
291.667
291.891
292.1
292.296
292.475
292.631
292.747
292.816
292.847
292.853
292.847
292.838
292.83
292.828
292.834
292.851
292.881
292.929
293.002
293.113
293.284
293.55
293.977
294.689
295.838
297.444
299.173
301.481
305.414
288.694
289.655
290.369
290.839
291.166
291.432
291.672
291.894
292.104
292.301
292.48
292.638
292.771
292.88
292.946
292.976
292.987
292.986
292.983
292.981
292.985
292.995
293.015
293.048
293.103
293.196
293.356
293.628
294.08
294.826
296.004
297.607
299.31
301.584
305.461
288.699
289.658
290.369
290.838
291.164
291.43
291.669
291.892
292.102
292.298
292.477
292.635
292.77
292.883
292.975
293.047
293.089
293.109
293.119
293.126
293.134
293.146
293.164
293.193
293.239
293.32
293.468
293.736
294.199
294.97
296.171
297.769
299.446
301.686
305.504
288.698
289.646
290.341
290.798
291.119
291.382
291.62
291.842
292.05
292.243
292.422
292.586
292.732
292.861
292.97
293.061
293.137
293.196
293.229
293.251
293.268
293.286
293.307
293.337
293.383
293.46
293.603
293.868
294.34
295.132
296.353
297.938
299.588
301.793
305.545
288.679
289.595
290.264
290.707
291.018
291.272
291.501
291.713
291.913
292.104
292.287
292.461
292.625
292.777
292.914
293.034
293.135
293.22
293.294
293.348
293.383
293.412
293.441
293.476
293.526
293.606
293.75
294.021
294.508
295.324
296.56
298.124
299.741
301.91
305.588
288.663
289.552
290.207
290.64
290.94
291.182
291.397
291.596
291.785
291.967
292.145
292.319
292.489
292.652
292.808
292.952
293.084
293.199
293.297
293.382
293.456
293.51
293.555
293.601
293.657
293.741
293.886
294.158
294.651
295.479
296.722
298.265
299.855
301.995
305.618
288.654
289.534
290.19
290.628
290.932
291.174
291.387
291.582
291.763
291.933
292.093
292.247
292.4
292.553
292.705
292.855
293
293.136
293.262
293.373
293.47
293.559
293.633
293.699
293.77
293.864
294.015
294.287
294.779
295.608
296.852
298.381
299.951
302.062
305.639
288.646
289.517
290.173
290.616
290.924
291.169
291.384
291.579
291.761
291.931
292.092
292.244
292.388
292.527
292.661
292.796
292.932
293.069
293.204
293.333
293.453
293.562
293.664
293.76
293.855
293.969
294.136
294.423
294.926
295.765
297.011
298.521
300.065
302.148
305.669
288.64
289.5
290.154
290.601
290.913
291.16
291.376
291.574
291.757
291.929
292.091
292.244
292.389
292.527
292.66
292.788
292.914
293.038
293.162
293.29
293.417
293.543
293.664
293.785
293.906
294.042
294.228
294.528
295.04
295.884
297.128
298.622
300.147
302.203
305.687
288.636
289.496
290.152
290.601
290.915
291.162
291.379
291.578
291.764
291.939
292.104
292.26
292.406
292.544
292.675
292.8
292.92
293.039
293.157
293.276
293.399
293.525
293.655
293.791
293.934
294.094
294.302
294.616
295.134
295.977
297.22
298.708
300.218
302.252
305.703
288.635
289.497
290.16
290.617
290.935
291.186
291.407
291.61
291.8
291.979
292.148
292.307
292.456
292.594
292.723
292.845
292.96
293.071
293.181
293.292
293.406
293.526
293.655
293.799
293.958
294.142
294.377
294.72
295.26
296.117
297.362
298.834
300.324
302.332
305.734
288.641
289.517
290.193
290.657
290.98
291.236
291.461
291.669
291.863
292.048
292.221
292.384
292.535
292.676
292.805
292.924
293.035
293.139
293.241
293.343
293.448
293.56
293.683
293.823
293.987
294.186
294.446
294.819
295.391
296.268
297.514
298.967
300.434
302.416
305.767
288.652
289.547
290.235
290.705
291.033
291.294
291.524
291.736
291.936
292.125
292.303
292.47
292.626
292.77
292.901
293.022
293.132
293.234
293.331
293.426
293.522
293.625
293.739
293.871
294.033
294.239
294.516
294.917
295.521
296.422
297.671
299.101
300.544
302.502
305.802
288.66
289.567
290.264
290.74
291.072
291.337
291.572
291.789
291.994
292.188
292.371
292.543
292.705
292.854
292.992
293.118
293.232
293.336
293.432
293.524
293.616
293.712
293.818
293.941
294.095
294.298
294.582
295.004
295.639
296.565
297.815
299.219
300.638
302.573
305.829
288.666
289.586
290.29
290.768
291.102
291.37
291.608
291.829
292.038
292.236
292.424
292.602
292.77
292.926
293.07
293.202
293.322
293.431
293.532
293.626
293.718
293.811
293.911
294.027
294.172
294.364
294.637
295.054
295.692
296.626
297.881
299.278
300.684
302.603
305.84
288.678
289.616
290.329
290.808
291.142
291.411
291.652
291.875
292.087
292.289
292.481
292.663
292.834
292.995
293.143
293.281
293.406
293.521
293.627
293.727
293.822
293.917
294.017
294.131
294.272
294.46
294.728
295.14
295.778
296.72
297.979
299.365
300.758
302.663
305.864
288.689
289.644
290.365
290.847
291.183
291.455
291.699
291.926
292.141
292.347
292.542
292.726
292.9
293.063
293.215
293.356
293.486
293.606
293.718
293.824
293.926
294.025
294.129
294.245
294.388
294.578
294.854
295.278
295.931
296.883
298.137
299.494
300.863
302.751
305.901
288.695
289.66
290.386
290.869
291.207
291.482
291.73
291.961
292.18
292.389
292.587
292.774
292.951
293.117
293.273
293.419
293.554
293.681
293.799
293.912
294.02
294.126
294.235
294.356
294.502
294.694
294.974
295.408
296.073
297.034
298.284
299.611
300.957
302.83
305.933
288.702
289.675
290.405
290.887
291.224
291.5
291.749
291.981
292.202
292.413
292.612
292.801
292.98
293.149
293.309
293.46
293.602
293.736
293.863
293.985
294.102
294.216
294.333
294.46
294.61
294.806
295.091
295.536
296.216
297.187
298.427
299.721
301.043
302.898
305.958
288.708
289.693
290.43
290.914
291.252
291.529
291.779
292.013
292.234
292.444
292.642
292.829
293.006
293.173
293.333
293.486
293.632
293.772
293.906
294.036
294.163
294.287
294.413
294.546
294.698
294.888
295.164
295.603
296.288
297.266
298.501
299.778
301.083
302.922
305.963
288.714
289.709
290.454
290.944
291.286
291.568
291.823
292.061
292.286
292.498
292.696
292.88
293.052
293.214
293.369
293.518
293.662
293.803
293.94
294.076
294.21
294.345
294.482
294.628
294.789
294.982
295.249
295.663
296.322
297.296
298.543
299.819
301.12
302.956
305.975
288.72
289.725
290.476
290.97
291.317
291.604
291.867
292.113
292.346
292.563
292.764
292.948
293.118
293.275
293.424
293.567
293.706
293.843
293.979
294.116
294.254
294.395
294.542
294.704
294.889
295.117
295.423
295.868
296.538
297.51
298.741
299.972
301.246
303.074
306.027
288.726
289.743
290.5
290.995
291.345
291.637
291.905
292.158
292.398
292.622
292.828
293.016
293.186
293.342
293.488
293.627
293.762
293.895
294.028
294.163
294.302
294.445
294.596
294.763
294.962
295.217
295.568
296.071
296.786
297.765
298.955
300.128
301.36
303.16
306.057
288.732
289.758
290.521
291.02
291.372
291.667
291.94
292.199
292.445
292.675
292.886
293.077
293.249
293.405
293.55
293.687
293.82
293.951
294.083
294.217
294.356
294.5
294.651
294.816
295.005
295.246
295.59
296.099
296.831
297.821
299.006
300.17
301.389
303.168
306.054
288.737
289.77
290.538
291.039
291.395
291.695
291.973
292.238
292.49
292.726
292.941
293.135
293.309
293.466
293.61
293.747
293.878
294.008
294.14
294.276
294.418
294.567
294.724
294.892
295.076
295.296
295.603
296.098
296.831
297.824
299.013
300.176
301.394
303.173
306.055
288.742
289.783
290.554
291.056
291.414
291.718
292.001
292.273
292.532
292.774
292.996
293.194
293.37
293.528
293.672
293.807
293.937
294.067
294.2
294.338
294.487
294.647
294.821
295.013
295.227
295.474
295.787
296.23
296.924
297.926
299.131
300.269
301.47
303.26
306.097
288.746
289.792
290.565
291.069
291.428
291.735
292.022
292.299
292.564
292.813
293.041
293.245
293.425
293.586
293.73
293.865
293.994
294.122
294.254
294.392
294.543
294.709
294.897
295.118
295.385
295.708
296.109
296.63
297.352
298.328
299.46
300.519
301.68
303.453
306.183
288.748
289.796
290.57
291.074
291.436
291.745
292.035
292.315
292.585
292.839
293.074
293.284
293.471
293.635
293.782
293.917
294.046
294.172
294.301
294.436
294.581
294.741
294.924
295.144
295.424
295.788
296.257
296.858
297.63
298.595
299.666
300.662
301.777
303.51
306.192
288.748
289.799
290.574
291.08
291.442
291.753
292.045
292.328
292.6
292.859
293.1
293.318
293.511
293.682
293.833
293.971
294.1
294.226
294.353
294.486
294.628
294.78
294.949
295.146
295.396
295.74
296.218
296.851
297.648
298.616
299.67
300.649
301.747
303.47
306.17
288.748
289.801
290.578
291.084
291.448
291.761
292.054
292.338
292.612
292.875
293.12
293.345
293.546
293.724
293.882
294.024
294.156
294.284
294.412
294.547
294.689
294.84
295.001
295.175
295.382
295.663
296.072
296.662
297.468
298.457
299.537
300.558
301.664
303.356
306.108
288.749
289.806
290.584
291.091
291.455
291.769
292.064
292.348
292.624
292.888
293.139
293.37
293.579
293.765
293.93
294.078
294.215
294.347
294.48
294.62
294.771
294.931
295.098
295.268
295.45
295.683
296.043
296.582
297.362
298.375
299.505
300.552
301.663
303.351
306.108
288.753
289.815
290.591
291.094
291.458
291.772
292.067
292.35
292.624
292.89
293.145
293.387
293.608
293.804
293.977
294.133
294.276
294.415
294.556
294.708
294.876
295.061
295.252
295.443
295.644
295.874
296.178
296.657
297.41
298.439
299.582
300.607
301.711
303.424
306.149
288.758
289.822
290.594
291.094
291.458
291.772
292.067
292.35
292.625
292.891
293.145
293.388
293.618
293.828
294.014
294.179
294.33
294.476
294.627
294.794
294.985
295.204
295.443
295.695
295.961
296.258
296.629
297.159
297.932
298.929
299.967
300.902
301.971
303.668
306.261
288.761
289.824
290.595
291.095
291.456
291.769
292.062
292.343
292.616
292.882
293.139
293.385
293.618
293.836
294.035
294.212
294.371
294.523
294.681
294.86
295.075
295.337
295.644
295.987
296.349
296.739
297.2
297.798
298.577
299.492
300.397
301.241
302.275
303.944
306.38
288.763
289.824
290.589
291.084
291.443
291.753
292.042
292.32
292.588
292.85
293.105
293.355
293.597
293.826
294.036
294.224
294.394
294.552
294.712
294.893
295.117
295.405
295.767
296.194
296.651
297.13
297.664
298.298
299.056
299.886
300.683
301.462
302.465
304.097
306.431
288.76
289.815
290.577
291.071
291.428
291.735
292.021
292.294
292.558
292.814
293.064
293.311
293.553
293.79
294.014
294.217
294.398
294.562
294.72
294.889
295.096
295.371
295.739
296.205
296.726
297.274
297.862
298.517
299.25
300.019
300.766
301.519
302.499
304.099
306.424
288.755
289.803
290.564
291.058
291.414
291.719
292.001
292.269
292.526
292.775
293.019
293.26
293.5
293.739
293.97
294.187
294.384
294.559
294.719
294.876
295.045
295.254
295.55
295.975
296.534
297.173
297.839
298.514
299.245
300.009
300.757
301.51
302.485
304.085
306.412
288.747
289.788
290.551
291.046
291.402
291.705
291.985
292.249
292.501
292.743
292.979
293.212
293.446
293.683
293.919
294.147
294.359
294.551
294.722
294.878
295.027
295.183
295.37
295.627
296.011
296.551
297.24
298.033
298.854
299.666
300.435
301.18
302.125
303.725
306.243
288.742
289.783
290.547
291.043
291.398
291.7
291.976
292.235
292.481
292.718
292.948
293.175
293.404
293.636
293.872
294.108
294.337
294.549
294.74
294.911
295.068
295.212
295.354
295.52
295.74
296.06
296.534
297.185
297.987
298.879
299.788
300.677
301.692
303.299
306.05
288.74
289.785
290.551
291.047
291.402
291.702
291.975
292.232
292.476
292.709
292.934
293.156
293.379
293.608
293.844
294.087
294.33
294.567
294.786
294.985
295.167
295.327
295.469
295.605
295.759
295.981
296.308
296.815
297.549
298.492
299.55
300.554
301.611
303.229
306.032
288.744
289.798
290.565
291.06
291.415
291.714
291.987
292.242
292.482
292.712
292.934
293.153
293.371
293.596
293.832
294.082
294.345
294.613
294.871
295.112
295.335
295.537
295.718
295.882
296.035
296.185
296.408
296.828
297.547
298.518
299.621
300.606
301.656
303.309
306.078
288.756
289.821
290.588
291.08
291.433
291.733
292.006
292.26
292.5
292.727
292.944
293.157
293.371
293.593
293.827
294.08
294.353
294.647
294.959
295.271
295.569
295.847
296.113
296.366
296.604
296.847
297.15
297.61
298.331
299.297
300.257
301.121
302.124
303.75
306.284
288.762
289.831
290.596
291.088
291.441
291.74
292.013
292.267
292.506
292.732
292.948
293.156
293.36
293.57
293.794
294.04
294.319
294.635
294.987
295.357
295.733
296.116
296.497
296.867
297.227
297.6
298.032
298.588
299.304
300.117
300.898
301.65
302.607
304.173
306.462
288.769
289.842
290.611
291.103
291.455
291.754
292.026
292.28
292.518
292.742
292.956
293.161
293.361
293.563
293.776
294.006
294.263
294.559
294.905
295.297
295.73
296.194
296.663
297.125
297.585
298.059
298.575
299.166
299.839
300.54
301.215
301.909
302.836
304.349
306.519
288.77
289.845
290.617
291.112
291.466
291.766
292.039
292.293
292.53
292.753
292.963
293.164
293.36
293.552
293.748
293.958
294.186
294.443
294.743
295.095
295.508
295.99
296.516
297.06
297.597
298.132
298.698
299.308
299.959
300.618
301.266
301.949
302.857
304.35
306.512
288.767
289.841
290.619
291.118
291.476
291.778
292.054
292.31
292.548
292.77
292.977
293.172
293.362
293.552
293.742
293.934
294.138
294.358
294.602
294.88
295.206
295.589
296.036
296.56
297.167
297.831
298.511
299.198
299.882
300.554
301.209
301.89
302.793
304.282
306.47
288.764
289.841
290.625
291.13
291.49
291.795
292.073
292.332
292.573
292.797
293.005
293.199
293.383
293.562
293.743
293.932
294.128
294.336
294.555
294.784
295.026
295.295
295.608
295.989
296.459
297.033
297.699
298.429
299.19
299.943
300.665
301.386
302.305
303.837
306.28
288.763
289.844
290.637
291.147
291.511
291.82
292.102
292.365
292.609
292.835
293.044
293.238
293.421
293.599
293.775
293.956
294.145
294.345
294.556
294.776
294.996
295.218
295.457
295.73
296.057
296.468
296.992
297.64
298.4
299.226
300.061
300.889
301.864
303.431
306.105
288.764
289.852
290.65
291.163
291.531
291.843
292.13
292.397
292.645
292.875
293.087
293.284
293.468
293.644
293.818
293.997
294.186
294.387
294.603
294.83
295.057
295.276
295.496
295.728
295.995
296.318
296.737
297.293
298.012
298.882
299.827
300.734
301.739
303.328
306.071
288.769
289.868
290.67
291.184
291.554
291.87
292.16
292.431
292.684
292.918
293.133
293.331
293.516
293.693
293.867
294.044
294.233
294.438
294.663
294.907
295.158
295.408
295.658
295.903
296.14
296.403
296.747
297.267
297.979
298.869
299.83
300.736
301.741
303.349
306.086
288.776
289.884
290.689
291.205
291.577
291.896
292.19
292.465
292.722
292.96
293.179
293.38
293.566
293.742
293.915
294.092
294.279
294.485
294.717
294.979
295.261
295.555
295.858
296.162
296.462
296.774
297.139
297.618
298.313
299.217
300.165
301.017
301.988
303.583
306.192
288.781
289.895
290.702
291.219
291.593
291.915
292.213
292.492
292.754
292.996
293.218
293.422
293.61
293.786
293.958
294.131
294.315
294.517
294.748
295.016
295.32
295.656
296.013
296.384
296.766
297.172
297.633
298.202
298.926
299.775
300.613
301.387
302.317
303.863
306.308
288.785
289.904
290.713
291.23
291.606
291.931
292.233
292.516
292.782
293.029
293.255
293.461
293.651
293.828
293.998
294.168
294.345
294.539
294.761
295.021
295.328
295.679
296.069
296.489
296.939
297.427
297.974
298.609
299.345
300.141
300.904
301.63
302.537
304.05
306.383
288.788
289.91
290.72
291.238
291.615
291.943
292.248
292.536
292.806
293.057
293.287
293.497
293.689
293.868
294.037
294.205
294.376
294.56
294.768
295.01
295.3
295.645
296.043
296.487
296.97
297.503
298.1
298.771
299.512
300.278
301.006
301.714
302.612
304.108
306.401
288.788
289.911
290.724
291.243
291.621
291.951
292.26
292.552
292.827
293.081
293.315
293.529
293.725
293.906
294.077
294.243
294.411
294.587
294.781
295.003
295.263
295.573
295.944
296.38
296.884
297.447
298.074
298.768
299.515
300.274
300.995
301.703
302.602
304.099
306.395
288.789
289.913
290.727
291.247
291.627
291.959
292.271
292.566
292.844
293.103
293.342
293.56
293.76
293.944
294.117
294.285
294.452
294.626
294.813
295.021
295.258
295.536
295.868
296.267
296.737
297.282
297.906
298.608
299.368
300.142
300.882
301.605
302.513
304.018
306.358
288.789
289.915
290.731
291.252
291.632
291.967
292.281
292.579
292.861
293.123
293.366
293.588
293.792
293.98
294.156
294.325
294.493
294.666
294.851
295.055
295.284
295.546
295.859
296.234
296.68
297.203
297.814
298.514
299.284
300.076
300.834
301.566
302.478
303.988
306.345
288.79
289.919
290.736
291.258
291.64
291.976
292.292
292.593
292.877
293.143
293.389
293.615
293.822
294.014
294.193
294.364
294.533
294.706
294.891
295.093
295.32
295.58
295.885
296.248
296.679
297.197
297.806
298.507
299.281
300.075
300.832
301.565
302.477
303.987
306.345
288.791
289.924
290.743
291.265
291.648
291.986
292.304
292.607
292.894
293.162
293.411
293.641
293.852
294.048
294.23
294.405
294.576
294.75
294.933
295.132
295.354
295.614
295.924
296.296
296.735
297.249
297.854
298.553
299.326
300.118
300.868
301.595
302.505
304.013
306.359
288.793
289.93
290.75
291.273
291.657
291.997
292.316
292.621
292.909
293.18
293.432
293.665
293.881
294.081
294.267
294.445
294.619
294.794
294.978
295.174
295.391
295.644
295.948
296.318
296.763
297.292
297.907
298.609
299.375
300.15
300.885
301.607
302.517
304.023
306.361
288.796
289.937
290.76
291.284
291.669
292.009
292.33
292.636
292.927
293.199
293.454
293.69
293.91
294.114
294.305
294.487
294.664
294.844
295.03
295.227
295.439
295.682
295.972
296.327
296.765
297.289
297.904
298.606
299.371
300.145
300.88
301.601
302.51
304.017
306.357
288.799
289.947
290.771
291.295
291.681
292.022
292.344
292.651
292.943
293.217
293.474
293.714
293.937
294.146
294.342
294.53
294.714
294.901
295.095
295.297
295.512
295.749
296.022
296.352
296.769
297.289
297.904
298.607
299.372
300.145
300.88
301.602
302.511
304.017
306.357
288.803
289.957
290.784
291.308
291.695
292.037
292.359
292.667
292.959
293.234
293.492
293.733
293.96
294.172
294.374
294.567
294.759
294.956
295.163
295.381
295.613
295.861
296.132
296.443
296.821
297.301
297.907
298.61
299.375
300.15
300.882
301.603
302.515
304.027
306.364
288.808
289.968
290.796
291.321
291.708
292.052
292.375
292.683
292.975
293.25
293.508
293.75
293.978
294.192
294.396
294.594
294.791
294.996
295.217
295.458
295.72
295.998
296.293
296.614
296.985
297.44
298.004
298.687
299.446
300.205
300.92
301.635
302.554
304.071
306.386
288.812
289.977
290.808
291.334
291.722
292.066
292.39
292.698
292.99
293.264
293.522
293.763
293.991
294.205
294.409
294.607
294.806
295.013
295.24
295.497
295.785
296.1
296.433
296.788
297.179
297.634
298.184
298.836
299.556
300.278
300.969
301.673
302.59
304.106
306.401
288.815
289.984
290.817
291.345
291.734
292.08
292.404
292.713
293.004
293.278
293.535
293.776
294.003
294.217
294.42
294.617
294.812
295.016
295.241
295.5
295.801
296.142
296.514
296.911
297.338
297.813
298.36
298.988
299.673
300.363
301.03
301.72
302.629
304.137
306.412
288.816
289.989
290.825
291.355
291.746
292.093
292.418
292.727
293.018
293.29
293.546
293.787
294.014
294.228
294.431
294.626
294.817
295.012
295.227
295.477
295.776
296.128
296.522
296.952
297.415
297.92
298.479
299.099
299.762
300.43
301.081
301.758
302.655
304.146
306.411
288.816
289.99
290.83
291.363
291.756
292.104
292.431
292.739
293.029
293.3
293.554
293.794
294.021
294.236
294.439
294.632
294.819
295.006
295.206
295.435
295.712
296.051
296.458
296.918
297.412
297.935
298.507
299.128
299.785
300.444
301.089
301.762
302.653
304.139
306.405
288.815
289.991
290.835
291.371
291.767
292.117
292.445
292.754
293.042
293.312
293.566
293.805
294.032
294.248
294.453
294.647
294.833
295.014
295.201
295.406
295.65
295.952
296.329
296.781
297.298
297.865
298.467
299.103
299.76
300.417
301.062
301.735
302.618
304.095
306.383
288.815
289.992
290.841
291.38
291.779
292.131
292.461
292.77
293.058
293.327
293.578
293.817
294.045
294.263
294.471
294.669
294.857
295.037
295.215
295.406
295.625
295.888
296.218
296.629
297.121
297.681
298.295
298.948
299.625
300.303
300.967
301.653
302.541
304.023
306.35
288.815
289.996
290.849
291.391
291.793
292.149
292.481
292.792
293.08
293.347
293.596
293.834
294.062
294.283
294.496
294.7
294.893
295.077
295.254
295.437
295.64
295.881
296.176
296.545
297
297.539
298.149
298.818
299.521
300.225
300.909
301.606
302.5
303.989
306.335
288.816
290.003
290.859
291.405
291.809
292.169
292.504
292.817
293.105
293.371
293.619
293.854
294.082
294.305
294.522
294.734
294.934
295.124
295.309
295.499
295.699
295.922
296.191
296.536
296.969
297.494
298.105
298.785
299.5
300.213
300.902
301.601
302.498
303.989
306.336
288.819
290.012
290.871
291.419
291.827
292.191
292.53
292.845
293.134
293.4
293.646
293.879
294.106
294.33
294.551
294.768
294.977
295.179
295.378
295.581
295.791
296.02
296.283
296.599
297.002
297.507
298.114
298.797
299.519
300.234
300.921
301.62
302.521
304.022
306.354
288.824
290.023
290.885
291.435
291.846
292.214
292.557
292.875
293.165
293.43
293.674
293.904
294.129
294.353
294.576
294.799
295.018
295.233
295.449
295.671
295.903
296.153
296.435
296.767
297.172
297.671
298.27
298.945
299.654
300.351
301.02
301.709
302.609
304.102
306.389
288.828
290.034
290.898
291.451
291.865
292.237
292.584
292.906
293.198
293.461
293.701
293.928
294.148
294.369
294.592
294.817
295.044
295.271
295.504
295.747
296.004
296.283
296.597
296.96
297.387
297.895
298.487
299.144
299.824
300.488
301.131
301.808
302.71
304.196
306.43
288.833
290.045
290.913
291.468
291.885
292.262
292.614
292.94
293.233
293.495
293.732
293.953
294.167
294.382
294.601
294.824
295.052
295.286
295.53
295.789
296.069
296.378
296.725
297.121
297.575
298.096
298.682
299.312
299.954
300.584
301.207
301.877
302.777
304.259
306.458
288.836
290.053
290.925
291.484
291.905
292.285
292.643
292.973
293.268
293.529
293.762
293.978
294.185
294.392
294.603
294.819
295.043
295.276
295.523
295.788
296.079
296.405
296.775
297.198
297.676
298.208
298.786
299.396
300.016
300.628
301.239
301.9
302.794
304.266
306.458
288.839
290.061
290.94
291.502
291.927
292.312
292.676
293.011
293.309
293.569
293.799
294.008
294.208
294.406
294.607
294.813
295.026
295.25
295.49
295.752
296.044
296.376
296.756
297.192
297.681
298.22
298.799
299.407
300.022
300.63
301.239
301.899
302.79
304.258
306.451
288.842
290.071
290.957
291.524
291.952
292.343
292.713
293.052
293.352
293.612
293.839
294.044
294.238
294.427
294.617
294.812
295.013
295.224
295.451
295.698
295.975
296.29
296.659
297.091
297.588
298.14
298.733
299.35
299.969
300.578
301.189
301.855
302.753
304.229
306.438
288.846
290.085
290.98
291.552
291.984
292.381
292.758
293.102
293.404
293.663
293.888
294.09
294.278
294.461
294.643
294.827
295.015
295.214
295.427
295.659
295.913
296.2
296.536
296.936
297.409
297.948
298.54
299.159
299.783
300.401
301.026
301.705
302.618
304.123
306.397
288.853
290.106
291.012
291.59
292.027
292.43
292.813
293.161
293.464
293.724
293.947
294.146
294.331
294.51
294.688
294.866
295.046
295.233
295.433
295.652
295.89
296.153
296.453
296.811
297.241
297.747
298.318
298.93
299.562
300.201
300.848
301.539
302.454
303.978
306.334
288.863
290.137
291.056
291.64
292.082
292.493
292.883
293.235
293.538
293.795
294.015
294.211
294.392
294.567
294.743
294.919
295.098
295.283
295.479
295.685
295.906
296.152
296.434
296.763
297.157
297.63
298.18
298.789
299.438
300.101
300.763
301.457
302.37
303.901
306.3
288.877
290.178
291.113
291.704
292.154
292.575
292.973
293.327
293.629
293.882
294.098
294.288
294.465
294.637
294.808
294.981
295.158
295.345
295.545
295.756
295.977
296.211
296.468
296.771
297.148
297.606
298.148
298.762
299.422
300.091
300.754
301.447
302.36
303.895
306.298
288.894
290.228
291.181
291.781
292.241
292.675
293.082
293.439
293.736
293.983
294.192
294.377
294.549
294.716
294.883
295.051
295.227
295.418
295.626
295.847
296.079
296.323
296.586
296.88
297.225
297.652
298.174
298.782
299.441
300.108
300.765
301.455
302.369
303.91
306.307
288.914
290.284
291.256
291.868
292.342
292.793
293.212
293.571
293.862
294.1
294.3
294.477
294.642
294.804
294.965
295.13
295.306
295.499
295.711
295.94
296.186
296.448
296.729
297.041
297.401
297.83
298.344
298.938
299.576
300.219
300.854
301.527
302.431
303.962
306.33
288.936
290.344
291.332
291.957
292.449
292.921
293.354
293.716
294.004
294.234
294.426
294.596
294.754
294.909
295.064
295.225
295.397
295.587
295.798
296.033
296.289
296.567
296.87
297.206
297.59
298.037
298.556
299.136
299.749
300.361
300.971
301.628
302.521
304.035
306.359
288.956
290.398
291.399
292.035
292.546
293.04
293.488
293.857
294.146
294.375
294.564
294.729
294.882
295.031
295.18
295.335
295.501
295.686
295.895
296.129
296.391
296.681
297.002
297.36
297.767
298.229
298.749
299.314
299.898
300.482
301.07
301.716
302.603
304.102
306.386
288.974
290.445
291.451
292.096
292.623
293.137
293.599
293.978
294.276
294.512
294.707
294.876
295.031
295.176
295.319
295.467
295.626
295.801
296
296.228
296.487
296.78