/*--------------------------------*- C++ -*----------------------------------*\
| =========                 |                                                 |
| \\      /  F ield         | OpenFOAM: The Open Source CFD Toolbox           |
|  \\    /   O peration     | Version:  2.0.x                                 |
|   \\  /    A nd           | Web:      www.OpenFOAM.org                      |
|    \\/     M anipulation  |                                                 |
\*---------------------------------------------------------------------------*/
FoamFile
{
    version     2.0;
    format      ascii;
    class       volVectorField;
    location    "900";
    object      U;
}
// * * * * * * * * * * * * * * * * * * * * * * * * * * * * * * * * * * * * * //

dimensions      [0 1 -1 0 0 0 0];

internalField   nonuniform List<vector> 
78750
(
(-0.00132707 0.00647474 0.00585863)
(-0.00399634 0.00716716 0.00955336)
(-0.00586113 0.00268115 0.0116789)
(-0.00589985 -0.00490329 0.013597)
(-0.00363228 -0.0132747 0.0155858)
(0.000450828 -0.0207021 0.0172639)
(0.00589245 -0.0265003 0.0185604)
(0.0122857 -0.0306059 0.0194862)
(0.0192647 -0.0332415 0.0201196)
(0.0265367 -0.0345425 0.0205209)
(0.0337406 -0.0345299 0.0206064)
(0.0408094 -0.0336912 0.0204987)
(0.0474694 -0.0313554 0.0200904)
(0.0540847 -0.0322004 0.0199672)
(0.0596618 -0.0310532 0.0196634)
(0.0646246 -0.0286255 0.0192196)
(0.0686915 -0.0254204 0.0187044)
(0.0719416 -0.0215457 0.0180332)
(0.0739906 -0.0183751 0.0174393)
(0.0756687 -0.0119682 0.016348)
(0.0755456 -0.00926959 0.015705)
(0.075318 -0.00542218 0.0149148)
(0.073905 -0.00180003 0.0141421)
(0.0716736 0.00159282 0.0133929)
(0.0686844 0.00478758 0.0126585)
(0.0649854 0.00787419 0.0119401)
(0.0604209 0.010842 0.0111908)
(0.055227 0.0129384 0.0103004)
(0.0494109 0.0148809 0.00934883)
(0.043068 0.0166536 0.00826585)
(0.0361996 0.0181895 0.0068989)
(0.0289449 0.0195592 0.00500908)
(0.0211411 0.0216365 0.00245024)
(0.0131394 0.0257368 -0.000201489)
(0.00403801 0.0261588 -0.00111891)
(-0.00012882 0.00598682 0.00643314)
(0.000901684 -0.00200053 0.0121208)
(0.00400917 -0.0215102 0.0153389)
(0.009053 -0.0442323 0.0181959)
(0.0151285 -0.0628312 0.0214918)
(0.0216476 -0.0771941 0.0235807)
(0.0282106 -0.0870954 0.0249361)
(0.0345618 -0.093136 0.0258154)
(0.0404764 -0.0962977 0.0263462)
(0.0463841 -0.0963034 0.0265736)
(0.0516033 -0.0936789 0.026565)
(0.0559026 -0.0908841 0.0265001)
(0.0602515 -0.0873975 0.0258711)
(0.0634888 -0.0787526 0.0250662)
(0.0658811 -0.0695799 0.0243006)
(0.0676 -0.0602683 0.0234777)
(0.0686937 -0.0509382 0.0226078)
(0.0691768 -0.0416447 0.0217202)
(0.0690526 -0.0325121 0.0208386)
(0.0684027 -0.023788 0.0200273)
(0.0673078 -0.0151965 0.0192198)
(0.0654921 -0.0067506 0.0184109)
(0.0631423 0.00152886 0.0175506)
(0.0604987 0.00948163 0.0166913)
(0.0573559 0.0169313 0.0158888)
(0.0541122 0.0240836 0.0151479)
(0.0495053 0.032951 0.013887)
(0.0457652 0.0385057 0.0129581)
(0.0408253 0.0449605 0.0120725)
(0.0354982 0.0507108 0.0110721)
(0.0297022 0.055883 0.00981631)
(0.0234402 0.0608201 0.00815271)
(0.0163625 0.067701 0.00582984)
(0.00890083 0.0770117 0.00309306)
(0.00242925 0.0712526 0.00102508)
(0.000148848 -0.00814856 0.0050808)
(0.00346763 -0.0411262 0.011297)
(0.00905479 -0.0775509 0.0150954)
(0.0153147 -0.10679 0.0176052)
(0.0210409 -0.125662 0.0190595)
(0.0257558 -0.135691 0.0199803)
(0.0296559 -0.139371 0.0205823)
(0.0329602 -0.13856 0.0209256)
(0.0351868 -0.136304 0.0209899)
(0.0373021 -0.131341 0.020784)
(0.0387768 -0.124429 0.020432)
(0.0398133 -0.115236 0.0200326)
(0.0408878 -0.103824 0.0197582)
(0.0404331 -0.093014 0.018746)
(0.0407895 -0.081699 0.0172615)
(0.0406831 -0.0698529 0.0154215)
(0.0403175 -0.0577261 0.01333)
(0.0397048 -0.0456307 0.0111659)
(0.038971 -0.0338423 0.00917599)
(0.0378996 -0.0222826 0.00748949)
(0.0366777 -0.010281 0.00622602)
(0.0350789 0.002746 0.00533521)
(0.0338515 0.0105491 0.00483606)
(0.0324189 0.0195298 0.00440458)
(0.0310099 0.0286598 0.00430778)
(0.0294119 0.0373665 0.00458705)
(0.0275511 0.0454177 0.00509202)
(0.0259415 0.0527864 0.00581866)
(0.0232033 0.0615545 0.00611054)
(0.0205229 0.0703721 0.00627079)
(0.0172945 0.0791949 0.00609257)
(0.0134825 0.0889926 0.00540441)
(0.00875483 0.101023 0.00395061)
(0.00411334 0.109938 0.00204424)
(0.000742052 0.0929856 0.000215656)
(0.000405992 -0.0248335 0.00515632)
(0.00333836 -0.0796685 0.0115463)
(0.00684437 -0.121245 0.0155142)
(0.00973697 -0.14397 0.0180861)
(0.0116072 -0.1533 0.019721)
(0.012894 -0.155971 0.0207995)
(0.0137151 -0.155386 0.0213768)
(0.0145133 -0.152409 0.0217496)
(0.0152369 -0.147357 0.0218754)
(0.015847 -0.140582 0.0217124)
(0.0164894 -0.132226 0.0212164)
(0.0169649 -0.122355 0.0204278)
(0.0173326 -0.110755 0.0194322)
(0.0184018 -0.0977494 0.0182649)
(0.0184964 -0.0843461 0.0166986)
(0.0184711 -0.0705872 0.0146328)
(0.0182728 -0.0566127 0.0119698)
(0.0176659 -0.0426321 0.00872424)
(0.0169272 -0.0289496 0.00498042)
(0.0161725 -0.016385 0.0014476)
(0.0154079 -0.00521634 -0.00138185)
(0.0149371 0.0042828 -0.0033597)
(0.0147153 0.0110523 -0.00436833)
(0.0144871 0.0190118 -0.00492906)
(0.0142932 0.0275785 -0.00495116)
(0.0140687 0.0365541 -0.00445686)
(0.0136704 0.0459602 -0.00361728)
(0.0130839 0.0558678 -0.00259322)
(0.0119869 0.0663827 -0.0017098)
(0.0109139 0.0772012 -0.000296154)
(0.0092587 0.0891254 0.000908026)
(0.00706008 0.10312 0.00157195)
(0.00430102 0.117665 0.0012972)
(0.0015861 0.12467 0.000158599)
(-8.27745e-05 0.0971271 -0.000556506)
(0.000180954 -0.0352784 0.00482628)
(0.00121223 -0.0970888 0.0104373)
(0.00217534 -0.136385 0.0135837)
(0.00297034 -0.156569 0.0155667)
(0.0035827 -0.166002 0.016941)
(0.00413168 -0.169985 0.0179687)
(0.00470266 -0.170577 0.0187797)
(0.0052577 -0.168712 0.0193497)
(0.0058584 -0.164455 0.0197956)
(0.00646999 -0.158009 0.0201465)
(0.00707136 -0.149461 0.020406)
(0.00766925 -0.138896 0.0205206)
(0.00824712 -0.126305 0.0203811)
(0.00883111 -0.11166 0.0198429)
(0.00945109 -0.0953287 0.0187318)
(0.0100492 -0.0780878 0.0168959)
(0.0104851 -0.0608372 0.0142826)
(0.0110351 -0.0445085 0.0109252)
(0.0111936 -0.0295579 0.00702923)
(0.0112672 -0.0161402 0.00280231)
(0.0110727 -0.00455541 -0.00128374)
(0.010815 0.00339728 -0.00395292)
(0.0105592 0.010492 -0.00579284)
(0.0102528 0.018526 -0.007143)
(0.00996501 0.0269219 -0.00791959)
(0.0097144 0.0358061 -0.00814944)
(0.00945957 0.0453233 -0.00785102)
(0.00907609 0.0555748 -0.00701934)
(0.00873255 0.0665817 -0.00556887)
(0.00787678 0.0786783 -0.00424901)
(0.00683595 0.0930462 -0.0027365)
(0.00517454 0.110218 -0.00142016)
(0.00314373 0.126118 -0.00088324)
(0.00112692 0.131716 -0.0011596)
(-0.000115458 0.0972179 -0.000944642)
(0.000134419 -0.0394963 0.00392298)
(0.000782894 -0.105617 0.00853993)
(0.00163858 -0.147935 0.0113874)
(0.00260521 -0.169203 0.0132528)
(0.00345707 -0.17832 0.0144327)
(0.00420645 -0.181619 0.0152141)
(0.00486331 -0.18153 0.0157068)
(0.00549117 -0.178917 0.0160318)
(0.00609998 -0.173957 0.0162645)
(0.00669854 -0.166894 0.0164752)
(0.00730583 -0.157875 0.0167287)
(0.00792139 -0.147053 0.0170773)
(0.00855182 -0.134626 0.0175367)
(0.00920902 -0.120801 0.0180643)
(0.00991546 -0.10569 0.0185345)
(0.010675 -0.0893919 0.0187201)
(0.0114662 -0.0721217 0.0183003)
(0.0122059 -0.0542783 0.0169313)
(0.0128168 -0.0364399 0.0143186)
(0.0132189 -0.0192401 0.0103252)
(0.0132842 -0.0041784 0.0053049)
(0.0128255 0.00657442 0.00082001)
(0.0122096 0.0139921 -0.00226163)
(0.0115083 0.0219071 -0.00497092)
(0.0108476 0.0295066 -0.00686713)
(0.0102477 0.0374136 -0.00799694)
(0.00971203 0.046127 -0.00840556)
(0.00919181 0.0559272 -0.00812726)
(0.00863751 0.06719 -0.00724466)
(0.0078726 0.0808561 -0.00612454)
(0.00681798 0.0976605 -0.00459464)
(0.00522981 0.117579 -0.0030457)
(0.00332732 0.134543 -0.00213053)
(0.00140524 0.139027 -0.00187569)
(1.13368e-05 0.098838 -0.000957614)
(4.17269e-05 -0.0438751 0.00292627)
(0.000801266 -0.114781 0.0068087)
(0.00188003 -0.159233 0.00945251)
(0.00304554 -0.181571 0.0111961)
(0.00414173 -0.191386 0.0122748)
(0.00517079 -0.195226 0.012936)
(0.00615026 -0.195584 0.0133153)
(0.00704442 -0.19354 0.013431)
(0.00794962 -0.189066 0.0133486)
(0.00878636 -0.182369 0.0131369)
(0.00959528 -0.173518 0.0128417)
(0.0103638 -0.162542 0.0125258)
(0.0110868 -0.149518 0.0122731)
(0.0117534 -0.134638 0.0121865)
(0.0123607 -0.118217 0.0123581)
(0.0129148 -0.100624 0.0128106)
(0.0134314 -0.0822296 0.0134333)
(0.0139265 -0.0633471 0.0139143)
(0.0143592 -0.0443396 0.0136275)
(0.014731 -0.025161 0.0124419)
(0.0149486 -0.00655335 0.00975288)
(0.014585 0.00917236 0.00556741)
(0.013975 0.0181934 0.00235437)
(0.0131378 0.027096 -0.0010481)
(0.0122302 0.0350135 -0.00387743)
(0.0113221 0.0425932 -0.00599962)
(0.0104599 0.0506186 -0.00743632)
(0.00964747 0.0597662 -0.00818538)
(0.00883799 0.0707709 -0.00821685)
(0.00794025 0.0847328 -0.00753227)
(0.00684622 0.102972 -0.00616576)
(0.00530786 0.124995 -0.00447636)
(0.00347545 0.143034 -0.00318603)
(0.00159748 0.146862 -0.00229929)
(0.000104628 0.102588 -0.00109611)
(0.000178281 -0.0482907 0.00219311)
(0.00147018 -0.124786 0.00603403)
(0.00305602 -0.172109 0.00875268)
(0.00461644 -0.195354 0.0103778)
(0.00601667 -0.2051 0.0112782)
(0.00734474 -0.208466 0.0117827)
(0.00851541 -0.208255 0.0119875)
(0.00960652 -0.205451 0.0119847)
(0.010538 -0.200045 0.0117906)
(0.0113247 -0.192283 0.0114178)
(0.0119708 -0.182315 0.010868)
(0.0124787 -0.170288 0.0101489)
(0.0128619 -0.156411 0.00929244)
(0.0131449 -0.140976 0.00837631)
(0.0133574 -0.1243 0.00752965)
(0.0135299 -0.106656 0.00691543)
(0.0136918 -0.0882833 0.00668243)
(0.0138649 -0.0693524 0.00689027)
(0.0139425 -0.0497834 0.00745151)
(0.0141089 -0.0298162 0.00790582)
(0.0140875 -0.00938263 0.00762811)
(0.0138722 0.0100005 0.00602426)
(0.0135172 0.0214235 0.00410596)
(0.0128807 0.0324206 0.00125408)
(0.0120457 0.0414356 -0.0016638)
(0.0111682 0.0492904 -0.00420559)
(0.0102894 0.0571012 -0.00622821)
(0.0094228 0.0658706 -0.00767745)
(0.00854285 0.0766432 -0.00844861)
(0.00757362 0.0908403 -0.00838496)
(0.00643496 0.110086 -0.00738705)
(0.00492093 0.133605 -0.00572)
(0.0031811 0.152308 -0.0041958)
(0.00139608 0.155387 -0.00295294)
(-6.10098e-06 0.10661 -0.00147783)
(0.000213906 -0.0556115 0.00220723)
(0.00166226 -0.138608 0.00639305)
(0.00305694 -0.187153 0.00906987)
(0.00417714 -0.210444 0.010561)
(0.00512739 -0.220188 0.0114084)
(0.00603358 -0.223432 0.0119315)
(0.00683839 -0.22291 0.0122295)
(0.00756973 -0.219361 0.0123753)
(0.00815971 -0.213098 0.0123329)
(0.00861912 -0.204306 0.0120806)
(0.0089338 -0.193138 0.011598)
(0.00911851 -0.179725 0.0108428)
(0.00918776 -0.16429 0.00978163)
(0.00917966 -0.147202 0.00842224)
(0.00913199 -0.128923 0.00683882)
(0.00905902 -0.109901 0.00518192)
(0.0089913 -0.090494 0.00366423)
(0.0089542 -0.0709079 0.00251369)
(0.00908332 -0.0510657 0.00197259)
(0.00893497 -0.0304778 0.00178332)
(0.00907268 -0.0082502 0.00220707)
(0.00919711 0.00866516 0.00248828)
(0.00922339 0.0226425 0.00194604)
(0.00886481 0.0356708 0.000263699)
(0.00867288 0.0459531 -0.00173871)
(0.00822273 0.0545035 -0.00387939)
(0.00772977 0.0626065 -0.00588424)
(0.00719073 0.0714596 -0.00758673)
(0.00659374 0.082374 -0.00881464)
(0.00586977 0.0970929 -0.00930158)
(0.00494698 0.117415 -0.00870639)
(0.00366882 0.142186 -0.00713628)
(0.0022348 0.16109 -0.00547131)
(0.000774081 0.163061 -0.00398108)
(-0.000243783 0.109055 -0.00214928)
(0.00026082 -0.062798 0.00293688)
(0.00111277 -0.149247 0.00750193)
(0.00148707 -0.196423 0.00981938)
(0.00152318 -0.218395 0.0109989)
(0.00143787 -0.227734 0.011747)
(0.0013252 -0.230852 0.0123415)
(0.00124171 -0.230002 0.0128737)
(0.0011161 -0.225925 0.0132972)
(0.00104418 -0.218865 0.0135502)
(0.000947491 -0.209083 0.0136299)
(0.000834851 -0.196884 0.0135217)
(0.000718694 -0.182536 0.0131389)
(0.000600655 -0.166405 0.012399)
(0.000517667 -0.148913 0.011244)
(0.000508844 -0.130464 0.00966096)
(0.000615308 -0.111383 0.00770357)
(0.000827288 -0.0919049 0.00551172)
(0.0011324 -0.0721715 0.00331922)
(0.00143907 -0.0521651 0.00142476)
(0.00194943 -0.0318042 0.000143008)
(0.00243391 -0.0114527 -0.000602787)
(0.00311252 0.00764285 -0.000840503)
(0.00355911 0.0222666 -0.00102803)
(0.0040382 0.0357015 -0.00170077)
(0.00415683 0.0468534 -0.00303937)
(0.00435505 0.0564302 -0.00453341)
(0.00438391 0.0654017 -0.00608346)
(0.0043762 0.0749302 -0.00759498)
(0.00416671 0.0865959 -0.00889762)
(0.00379884 0.102371 -0.00968172)
(0.00320139 0.124112 -0.00951227)
(0.00226698 0.149875 -0.00822302)
(0.00124696 0.168191 -0.00662142)
(0.000210489 0.168443 -0.00502001)
(-0.000340684 0.108838 -0.00264941)
(0.0001146 -0.0664542 0.00360669)
(5.49193e-05 -0.152153 0.00789662)
(-0.000341442 -0.197915 0.00981647)
(-0.000888741 -0.219414 0.0108572)
(-0.00162939 -0.228974 0.0115651)
(-0.00234425 -0.23252 0.0122984)
(-0.00301262 -0.232326 0.0132688)
(-0.00369158 -0.228983 0.0141593)
(-0.0043387 -0.222845 0.0150375)
(-0.00487956 -0.213909 0.015855)
(-0.00528658 -0.202216 0.0165142)
(-0.00555055 -0.188212 0.0169685)
(-0.00561544 -0.172403 0.0171317)
(-0.00549129 -0.155189 0.01689)
(-0.00519386 -0.136886 0.0161254)
(-0.00474503 -0.117747 0.0147448)
(-0.00418116 -0.0979798 0.0127169)
(-0.00355579 -0.0777665 0.0101157)
(-0.0028495 -0.0572753 0.00714507)
(-0.00203146 -0.0367255 0.00414604)
(-0.0011198 -0.0166085 0.00154317)
(-0.000144131 0.00192712 -0.000342333)
(0.000744529 0.0182134 -0.00155794)
(0.0014403 0.0325033 -0.00246778)
(0.00203055 0.0447095 -0.00341996)
(0.00244633 0.0551335 -0.00458827)
(0.00275195 0.0649443 -0.00591235)
(0.00288273 0.0755063 -0.00730958)
(0.00290012 0.0883657 -0.00860856)
(0.00270151 0.105569 -0.00953395)
(0.00227483 0.128889 -0.00966635)
(0.00157906 0.155635 -0.0087409)
(0.000855306 0.173091 -0.00733048)
(0.000139164 0.17153 -0.00570518)
(-0.000238841 0.107782 -0.00279933)
(-0.000196162 -0.0663638 0.0041876)
(-0.00101504 -0.151953 0.0080201)
(-0.00199477 -0.197818 0.00935483)
(-0.00291545 -0.219407 0.0100173)
(-0.00371036 -0.228892 0.0104665)
(-0.00449884 -0.232495 0.0110811)
(-0.0054617 -0.232452 0.0121477)
(-0.00611498 -0.229225 0.0130285)
(-0.00671561 -0.223286 0.0139045)
(-0.00713819 -0.215021 0.0148722)
(-0.00735638 -0.204754 0.0159895)
(-0.00732493 -0.192606 0.0172349)
(-0.00704814 -0.178662 0.0185328)
(-0.00655406 -0.163029 0.0197647)
(-0.00588931 -0.145876 0.0207514)
(-0.00509373 -0.127423 0.0212555)
(-0.00419303 -0.107913 0.0210197)
(-0.00321688 -0.0876068 0.0198303)
(-0.00218183 -0.0667748 0.0175996)
(-0.00111317 -0.0457186 0.0144241)
(-4.39605e-06 -0.0248979 0.0106233)
(0.00106683 -0.00504242 0.00671981)
(0.00193358 0.0124493 0.00342003)
(0.00262112 0.0283796 0.000664409)
(0.00319637 0.0418871 -0.00134077)
(0.00350291 0.053588 -0.00290333)
(0.00372532 0.0646443 -0.00409714)
(0.00361683 0.0763058 -0.00574577)
(0.00347673 0.0904235 -0.00719508)
(0.00312306 0.109097 -0.00832546)
(0.00258071 0.133792 -0.00878661)
(0.00183646 0.160991 -0.00826329)
(0.00113216 0.177386 -0.00711596)
(0.000423607 0.174305 -0.00543929)
(-4.52124e-05 0.107934 -0.00199782)
(-0.000171737 -0.0624615 0.0038008)
(-0.00105737 -0.146888 0.00644988)
(-0.0019469 -0.194043 0.0070261)
(-0.00261039 -0.217206 0.00726801)
(-0.00331233 -0.227769 0.00793265)
(-0.00388006 -0.232404 0.00841392)
(-0.00433201 -0.233745 0.00841511)
(-0.00469571 -0.232262 0.00867728)
(-0.00487009 -0.228324 0.00914086)
(-0.00485318 -0.222111 0.00980611)
(-0.00465047 -0.213707 0.0107006)
(-0.00427776 -0.2032 0.011857)
(-0.00373306 -0.190677 0.0133209)
(-0.0030683 -0.176181 0.0151836)
(-0.00232198 -0.159875 0.0174156)
(-0.00151039 -0.14199 0.0198372)
(-0.000611444 -0.122757 0.0221223)
(0.000343292 -0.102426 0.0237986)
(0.00132707 -0.0812797 0.0243578)
(0.00235258 -0.0594871 0.0235049)
(0.00338354 -0.0372416 0.0210861)
(0.00433567 -0.014959 0.0171737)
(0.00495774 0.00622406 0.0122703)
(0.00544454 0.022589 0.00849393)
(0.0057734 0.0386808 0.00485472)
(0.00586947 0.0527418 0.00202258)
(0.00550172 0.065353 -0.00093575)
(0.00525124 0.0783999 -0.00281863)
(0.00470528 0.0936977 -0.0046086)
(0.00405046 0.113589 -0.00619909)
(0.00327843 0.139369 -0.00720872)
(0.00237347 0.166849 -0.00721475)
(0.00155969 0.182424 -0.00639012)
(0.000760663 0.178277 -0.00483529)
(3.43818e-05 0.109188 -0.00154502)
(-0.000169909 -0.0605005 0.00306308)
(-0.000554178 -0.144556 0.0055487)
(-0.000727795 -0.19265 0.00617074)
(-0.00076233 -0.216903 0.00608673)
(-0.000705018 -0.228794 0.00555631)
(-0.000626598 -0.234683 0.00479889)
(-0.000502102 -0.236773 0.0041418)
(-0.000316912 -0.236049 0.00359565)
(-7.70737e-05 -0.232842 0.00322334)
(0.00022841 -0.227343 0.00303718)
(0.000573832 -0.21968 0.00303394)
(0.0010021 -0.210123 0.00313404)
(0.0013914 -0.198519 0.00347741)
(0.00160317 -0.184675 0.00455264)
(0.00186954 -0.169142 0.00645962)
(0.0022235 -0.15226 0.00922318)
(0.00266522 -0.134009 0.0129048)
(0.00320484 -0.114228 0.0173597)
(0.00393832 -0.0935883 0.0211502)
(0.00472376 -0.0719008 0.0238981)
(0.00557782 -0.0489867 0.0251276)
(0.00648132 -0.0247677 0.0242531)
(0.00732316 -0.000251323 0.020892)
(0.00762947 0.0181417 0.016787)
(0.00774027 0.036883 0.012059)
(0.00765799 0.0533482 0.0075126)
(0.00728212 0.0681126 0.00347601)
(0.00669321 0.0825653 0.000429129)
(0.00593629 0.0990306 -0.00196037)
(0.00506234 0.119942 -0.00392416)
(0.00411731 0.146375 -0.00532032)
(0.00306001 0.173618 -0.00575475)
(0.00209085 0.188293 -0.00521902)
(0.00114172 0.18337 -0.0038217)
(0.000151015 0.112317 -0.000682148)
(-7.59062e-05 -0.0604329 0.00235694)
(0.000307157 -0.145714 0.00400245)
(0.00121964 -0.196008 0.00432271)
(0.0022862 -0.22198 0.00396744)
(0.00326796 -0.2346 0.0033361)
(0.00408856 -0.240709 0.00266226)
(0.00476396 -0.243083 0.00197261)
(0.00531236 -0.242709 0.00130238)
(0.00580798 -0.239839 0.000549117)
(0.00620456 -0.234555 -0.000223575)
(0.00647104 -0.226802 -0.000930373)
(0.00664358 -0.216135 -0.00128932)
(0.00644694 -0.202611 -0.000981387)
(0.00629206 -0.187822 -0.000480451)
(0.00605148 -0.172286 0.000327067)
(0.00581397 -0.156296 0.00156429)
(0.00567932 -0.140064 0.00328834)
(0.00575833 -0.123357 0.0058709)
(0.00604142 -0.104812 0.00999381)
(0.00654839 -0.0846358 0.0145383)
(0.00715977 -0.0628577 0.0187948)
(0.00785783 -0.0392381 0.0220278)
(0.0086196 -0.0136357 0.0233395)
(0.00897847 0.0124266 0.0218703)
(0.00901712 0.0313313 0.0186902)
(0.00896729 0.0513728 0.0135874)
(0.00864608 0.0691761 0.00909899)
(0.00793374 0.0858955 0.00505266)
(0.00700694 0.103885 0.0016663)
(0.00591121 0.125894 -0.00110104)
(0.00473519 0.15321 -0.00312538)
(0.00344943 0.18078 -0.00404006)
(0.00228814 0.195217 -0.00380243)
(0.00120662 0.189861 -0.00263906)
(9.16174e-05 0.116362 -3.08423e-05)
(-7.68254e-05 -0.0632052 0.00135492)
(0.000955886 -0.153107 0.00310036)
(0.00268839 -0.20582 0.00418243)
(0.00439741 -0.232001 0.0043785)
(0.00586611 -0.243865 0.00400289)
(0.00708098 -0.249008 0.00335235)
(0.00807477 -0.250319 0.00251402)
(0.00877549 -0.248951 0.00166479)
(0.0092807 -0.244865 0.000628942)
(0.00947077 -0.23816 -0.000517795)
(0.00946434 -0.228753 -0.00167241)
(0.00900066 -0.21629 -0.0023621)
(0.00864954 -0.202514 -0.00298343)
(0.00821581 -0.187731 -0.00332022)
(0.00778876 -0.172233 -0.00322534)
(0.0073837 -0.156304 -0.00268224)
(0.00699084 -0.140194 -0.00181065)
(0.00663685 -0.124093 -0.000977803)
(0.00638015 -0.107559 0.000616012)
(0.00636544 -0.0894538 0.00407126)
(0.00658909 -0.0695926 0.00830067)
(0.00701576 -0.0473896 0.0128727)
(0.00754229 -0.0220578 0.0171967)
(0.00808992 0.00537884 0.0201924)
(0.00840535 0.0257242 0.0205346)
(0.00852139 0.0484948 0.0183491)
(0.00816186 0.0695685 0.0145764)
(0.00752729 0.0895454 0.00970239)
(0.00658305 0.110033 0.00515683)
(0.00547705 0.133716 0.00136468)
(0.00427388 0.161855 -0.0014029)
(0.00298586 0.189093 -0.00279296)
(0.00186505 0.20262 -0.00283928)
(0.000867141 0.196113 -0.00195796)
(-5.11881e-05 0.119222 5.43506e-05)
(-2.85039e-05 -0.0679549 0.00144782)
(0.00130932 -0.163692 0.0042152)
(0.00317454 -0.217964 0.00598407)
(0.0048518 -0.243406 0.00640869)
(0.00629496 -0.25417 0.00604876)
(0.00750776 -0.25819 0.00532103)
(0.00851844 -0.258255 0.00435438)
(0.00922758 -0.255517 0.00327323)
(0.00957815 -0.249767 0.00180243)
(0.00961838 -0.240878 -9.88133e-05)
(0.00941605 -0.229016 -0.00214786)
(0.00908489 -0.216095 -0.00449381)
(0.00861302 -0.201901 -0.00670307)
(0.00808834 -0.186841 -0.00838079)
(0.00754471 -0.171352 -0.00919964)
(0.00704037 -0.155665 -0.00899475)
(0.00662111 -0.139847 -0.00787168)
(0.0062755 -0.123888 -0.00608625)
(0.00597039 -0.108015 -0.00435338)
(0.00580515 -0.0920648 -0.00233904)
(0.00578847 -0.0746104 0.000515987)
(0.00596549 -0.0545669 0.0043891)
(0.00631877 -0.0310594 0.00924525)
(0.00687414 -0.0048591 0.0143126)
(0.00730009 0.0169958 0.0172922)
(0.00753241 0.04309 0.0180252)
(0.00751271 0.0680461 0.0159378)
(0.00688719 0.0908922 0.0123994)
(0.00618895 0.113736 0.00789359)
(0.00514771 0.139277 0.00367449)
(0.00399863 0.168578 0.000375805)
(0.00275898 0.195955 -0.00144956)
(0.00166898 0.20894 -0.0018006)
(0.000728677 0.201413 -0.00125984)
(-7.57323e-05 0.121195 0.000102184)
(0.000117281 -0.0735435 0.0015053)
(0.00158465 -0.174353 0.00479295)
(0.00325408 -0.229281 0.00687653)
(0.00464508 -0.25365 0.00749848)
(0.00577337 -0.263186 0.0072639)
(0.00675557 -0.265938 0.00656077)
(0.00739845 -0.264852 0.00568354)
(0.00779207 -0.260103 0.00427907)
(0.00780403 -0.251887 0.0023069)
(0.00786553 -0.241178 -0.000262423)
(0.00752699 -0.228797 -0.00339654)
(0.00715057 -0.214397 -0.00683509)
(0.00660257 -0.198698 -0.010297)
(0.00595657 -0.182642 -0.0133015)
(0.00532094 -0.16697 -0.015403)
(0.00477417 -0.151897 -0.0163635)
(0.00435694 -0.137193 -0.016133)
(0.00408374 -0.122466 -0.0148232)
(0.00399117 -0.107409 -0.0126854)
(0.00385118 -0.0919334 -0.0107274)
(0.00398144 -0.0753766 -0.00754163)
(0.00412724 -0.0569952 -0.00368421)
(0.00450709 -0.0357791 0.00114594)
(0.00518554 -0.0116028 0.00683639)
(0.00563311 0.0106078 0.0112945)
(0.00590175 0.0360474 0.0145931)
(0.00608703 0.0639071 0.0152661)
(0.00588249 0.0903568 0.0131786)
(0.00521966 0.116448 0.00954303)
(0.00427234 0.144555 0.00534007)
(0.00320149 0.1754 0.00175523)
(0.00203911 0.202913 -0.000381557)
(0.00108518 0.215112 -0.00101375)
(0.000312791 0.206118 -0.00084396)
(-0.000207977 0.122254 -0.000137257)
(0.000122545 -0.0799049 0.00204517)
(0.00128583 -0.185185 0.0059391)
(0.00228711 -0.239116 0.00823642)
(0.00289871 -0.261376 0.00902463)
(0.00334564 -0.269347 0.00896936)
(0.0036626 -0.270668 0.00836378)
(0.00390255 -0.267535 0.00724649)
(0.00387498 -0.261019 0.00564324)
(0.0038269 -0.251945 0.00357642)
(0.00343995 -0.240629 0.00108795)
(0.00305531 -0.226559 -0.0018105)
(0.00258078 -0.210558 -0.00530621)
(0.00215326 -0.193744 -0.00914177)
(0.00177614 -0.177195 -0.0128658)
(0.00145197 -0.161564 -0.0160066)
(0.00122652 -0.146972 -0.0182814)
(0.00108064 -0.13312 -0.0194437)
(0.00101458 -0.119563 -0.0193782)
(0.00102401 -0.105828 -0.0181871)
(0.00122547 -0.0915362 -0.0159045)
(0.00132545 -0.0765497 -0.0138036)
(0.00168297 -0.0601028 -0.0105143)
(0.00217051 -0.0413303 -0.00632229)
(0.0028894 -0.0193522 -0.00111037)
(0.00356748 0.00592347 0.00483655)
(0.00399893 0.0303167 0.00963961)
(0.0043383 0.0594404 0.012881)
(0.00442461 0.0889565 0.0129224)
(0.00391504 0.118124 0.0101421)
(0.00329307 0.148866 0.00632302)
(0.00233652 0.181136 0.00261734)
(0.00139083 0.208394 0.000281422)
(0.000632692 0.219546 -0.000552348)
(6.07044e-05 0.208883 -0.000669742)
(-0.000207018 0.1219 -0.000285402)
(0.000181468 -0.08437 0.00285118)
(0.000569819 -0.191219 0.00720638)
(0.00053463 -0.242862 0.00941171)
(0.000390832 -0.263181 0.0102192)
(0.000221729 -0.270232 0.0103408)
(8.14703e-05 -0.271024 0.00998098)
(-0.000138636 -0.26775 0.00931578)
(-0.000184726 -0.261041 0.00824643)
(-0.000495631 -0.251417 0.00718514)
(-0.00070555 -0.238897 0.00516167)
(-0.000879994 -0.22433 0.00196576)
(-0.00106211 -0.208507 -0.00184395)
(-0.00115536 -0.192098 -0.00577645)
(-0.0010836 -0.175797 -0.00957176)
(-0.000869335 -0.160147 -0.0128818)
(-0.000653313 -0.145411 -0.0154238)
(-0.000464191 -0.131437 -0.0176283)
(-0.000271526 -0.118027 -0.0190753)
(-5.43362e-05 -0.104741 -0.0192809)
(0.000158201 -0.0910346 -0.0184224)
(0.000431432 -0.0765424 -0.0165614)
(0.000680182 -0.0613529 -0.0144959)
(0.00105952 -0.0442794 -0.0113538)
(0.00159581 -0.0242511 -0.00701565)
(0.00231904 -0.000878917 -0.00160523)
(0.00300098 0.0233222 0.00367295)
(0.00353007 0.0529231 0.008587)
(0.00370754 0.0847739 0.0109682)
(0.00352341 0.117472 0.010223)
(0.00288856 0.151056 0.00721976)
(0.00211652 0.185119 0.00372656)
(0.00126403 0.212558 0.00125606)
(0.000557875 0.223004 0.000183219)
(6.73382e-05 0.210923 -0.000256365)
(-0.000114446 0.12113 -0.000307804)
(4.02174e-05 -0.0859229 0.00327163)
(-0.000163177 -0.19193 0.00750445)
(-0.000595405 -0.243028 0.00976035)
(-0.00101275 -0.263225 0.0108703)
(-0.00138169 -0.270217 0.0113884)
(-0.00175253 -0.27107 0.0116595)
(-0.00195867 -0.267671 0.0117081)
(-0.00236267 -0.260883 0.0115773)
(-0.00243896 -0.25081 0.00996627)
(-0.00263976 -0.238565 0.0080418)
(-0.00265853 -0.224633 0.00579647)
(-0.00247688 -0.209496 0.00314416)
(-0.00209149 -0.193594 -1.73438e-05)
(-0.00161355 -0.177399 -0.00354952)
(-0.00112928 -0.16139 -0.00723016)
(-0.000652123 -0.145981 -0.0106755)
(-0.000200541 -0.131472 -0.0132515)
(0.000183845 -0.11769 -0.0148599)
(0.000440295 -0.104096 -0.0162873)
(0.000640363 -0.090439 -0.0169811)
(0.000862131 -0.0762761 -0.0164722)
(0.00107353 -0.0615189 -0.0150374)
(0.00135064 -0.0457329 -0.0129671)
(0.00172028 -0.027618 -0.00995753)
(0.00225372 -0.00600697 -0.00576977)
(0.00279868 0.0178268 -0.00101596)
(0.00330434 0.047979 0.00431862)
(0.00356094 0.0815864 0.00819045)
(0.00340922 0.116836 0.00918068)
(0.0028556 0.1532 0.00744008)
(0.00208243 0.189031 0.00447696)
(0.00124228 0.216583 0.0020439)
(0.00056631 0.226309 0.000801974)
(0.000108987 0.212875 0.000108957)
(-4.8066e-05 0.120804 -0.000231903)
(-3.03176e-05 -0.0858725 0.0035026)
(-0.000509636 -0.191735 0.00745691)
(-0.00129206 -0.242964 0.00957441)
(-0.00193797 -0.263183 0.0109735)
(-0.00246516 -0.270156 0.0119031)
(-0.00283332 -0.270858 0.01243)
(-0.00325302 -0.267518 0.0127857)
(-0.0034394 -0.260786 0.0128157)
(-0.00363511 -0.251705 0.0129725)
(-0.00351867 -0.240514 0.0128723)
(-0.00327656 -0.227613 0.012255)
(-0.00288431 -0.213363 0.0109051)
(-0.00234734 -0.198084 0.00872338)
(-0.00169236 -0.182075 0.00572197)
(-0.000940064 -0.165677 0.00206099)
(-0.000164177 -0.1493 -0.00195524)
(0.000491332 -0.133389 -0.00588289)
(0.000996722 -0.118207 -0.00928668)
(0.00140602 -0.103732 -0.0115188)
(0.00170141 -0.0895969 -0.0126738)
(0.00186514 -0.0753956 -0.0135471)
(0.00200131 -0.0610451 -0.0136661)
(0.00215115 -0.0458099 -0.0126571)
(0.00234741 -0.0286927 -0.0106826)
(0.00262322 -0.00849298 -0.00770547)
(0.0029074 0.0144195 -0.0038547)
(0.00325913 0.0429074 0.000854882)
(0.00353605 0.0778723 0.00537247)
(0.00338786 0.115841 0.00766679)
(0.00281928 0.155009 0.00712195)
(0.00201375 0.192591 0.00482547)
(0.00119144 0.220137 0.00259362)
(0.000568776 0.229153 0.00129414)
(0.000128095 0.214528 0.000451908)
(-4.26293e-05 0.120807 -1.00197e-05)
(1.38156e-05 -0.0841867 0.00339356)
(-0.000766765 -0.189631 0.00642063)
(-0.00183343 -0.240733 0.00774966)
(-0.00263595 -0.261397 0.00888018)
(-0.00327191 -0.269035 0.00983264)
(-0.00371267 -0.270506 0.0104653)
(-0.00398825 -0.267899 0.011926)
(-0.00411813 -0.262598 0.0133328)
(-0.00401074 -0.25474 0.0146289)
(-0.00379742 -0.244747 0.0156715)
(-0.00343186 -0.232956 0.0162955)
(-0.002932 -0.219637 0.016333)
(-0.00231671 -0.205036 0.0156321)
(-0.00160293 -0.189391 0.0140789)
(-0.000813597 -0.172945 0.0116257)
(2.39575e-05 -0.155986 0.00833382)
(0.000877144 -0.138865 0.00441555)
(0.00164235 -0.121986 0.000261282)
(0.00224117 -0.105692 -0.00361541)
(0.00265475 -0.0901 -0.00676806)
(0.00293701 -0.0750712 -0.00860321)
(0.00309844 -0.06028 -0.00954858)
(0.00314046 -0.0451652 -0.0100597)
(0.00316972 -0.028579 -0.0095061)
(0.00319021 -0.00893381 -0.00775096)
(0.00325298 0.0132771 -0.00498454)
(0.00337545 0.0405833 -0.00119161)
(0.00348725 0.0759832 0.00323468)
(0.00330907 0.115848 0.00629721)
(0.00276306 0.157275 0.00665124)
(0.00197985 0.196142 0.00500577)
(0.00121112 0.223362 0.00304735)
(0.000634875 0.231662 0.00175658)
(0.000206719 0.216015 0.000832328)
(-1.59437e-05 0.120974 0.00017832)
(-6.65703e-05 -0.0823106 0.00305678)
(-0.000800814 -0.185636 0.00498005)
(-0.00171307 -0.237191 0.00532161)
(-0.00237242 -0.259169 0.00585038)
(-0.00289145 -0.267991 0.00676362)
(-0.00322031 -0.270435 0.008027)
(-0.00344386 -0.26943 0.00908915)
(-0.00344608 -0.265275 0.0103793)
(-0.00334584 -0.258591 0.0117573)
(-0.00309356 -0.249747 0.0131978)
(-0.00273427 -0.239033 0.0146463)
(-0.00227748 -0.22666 0.0159717)
(-0.00171921 -0.212829 0.0169749)
(-0.00108065 -0.197738 0.0174234)
(-0.000381168 -0.18158 0.0170941)
(0.000371095 -0.164544 0.0158154)
(0.00115342 -0.146851 0.0135161)
(0.00194775 -0.128797 0.010277)
(0.00270033 -0.110767 0.00637721)
(0.00329234 -0.0931989 0.00230093)
(0.00370129 -0.0763975 -0.00137052)
(0.00394307 -0.0603028 -0.00403054)
(0.00404273 -0.044301 -0.00531124)
(0.0039579 -0.0272323 -0.00606363)
(0.00378519 -0.0078333 -0.00586366)
(0.0036848 0.0131079 -0.00449202)
(0.00366715 0.0396747 -0.00185248)
(0.00356616 0.0745454 0.00183274)
(0.00342589 0.115585 0.00493839)
(0.0029131 0.158809 0.00637171)
(0.00225028 0.198906 0.00539808)
(0.00150853 0.226044 0.00368217)
(0.000891326 0.23393 0.00240386)
(0.000414615 0.217681 0.00140265)
(7.89288e-05 0.121608 0.000573888)
(-6.38015e-05 -0.08105 0.00281468)
(-0.000507321 -0.183497 0.00426901)
(-0.00102707 -0.235511 0.00412709)
(-0.00141845 -0.25826 0.00393109)
(-0.00171353 -0.267698 0.0040776)
(-0.00198755 -0.270818 0.00456074)
(-0.00209646 -0.270377 0.00491471)
(-0.0021275 -0.267025 0.00543529)
(-0.00204054 -0.261219 0.00624733)
(-0.00184709 -0.253323 0.00740302)
(-0.00153681 -0.243605 0.00891183)
(-0.00113883 -0.232236 0.0107189)
(-0.000685497 -0.219362 0.0126923)
(-0.000177173 -0.205124 0.0146217)
(0.000378392 -0.189663 0.0162397)
(0.00098368 -0.173116 0.0172587)
(0.00163601 -0.155617 0.0174126)
(0.00231388 -0.137319 0.0165054)