/*--------------------------------*- C++ -*----------------------------------*\
| =========                 |                                                 |
| \\      /  F ield         | OpenFOAM: The Open Source CFD Toolbox           |
|  \\    /   O peration     | Version:  2.3.x                                 |
|   \\  /    A nd           | Web:      www.OpenFOAM.org                      |
|    \\/     M anipulation  |                                                 |
\*---------------------------------------------------------------------------*/
FoamFile
{
    version     2.0;
    format      ascii;
    class       volVectorField;
    location    "900";
    object      U;
}
// * * * * * * * * * * * * * * * * * * * * * * * * * * * * * * * * * * * * * //

dimensions      [0 1 -1 0 0 0 0];

internalField   nonuniform List<vector> 
78750
(
(-0.00349616 0.0227747 0.0352365)
(-0.0128071 0.0168093 0.0552891)
(-0.0241031 -0.000331724 0.0549206)
(-0.0322967 -0.0127993 0.0516704)
(-0.0368413 -0.024291 0.0500597)
(-0.0369895 -0.0349639 0.0489914)
(-0.0355637 -0.0439381 0.0485625)
(-0.0296975 -0.0521811 0.0471324)
(-0.0222907 -0.0582566 0.0460587)
(-0.0133885 -0.0618931 0.0453595)
(-0.00371754 -0.0635733 0.0449034)
(0.00622712 -0.0638098 0.0446543)
(0.0159202 -0.0632642 0.0445538)
(0.0254911 -0.0618521 0.0444635)
(0.0345792 -0.0600946 0.0442173)
(0.0432161 -0.0580861 0.0438796)
(0.0511649 -0.055064 0.043893)
(0.0585672 -0.054576 0.042257)
(0.06505 -0.0532999 0.0408341)
(0.070639 -0.0509763 0.0395761)
(0.0751496 -0.0475437 0.0397929)
(0.0792837 -0.0410181 0.0402463)
(0.0812911 -0.0365171 0.0406499)
(0.0828583 -0.0320151 0.0410595)
(0.0832049 -0.0273331 0.0415298)
(0.0823089 -0.0223889 0.0421311)
(0.0800774 -0.0171345 0.04283)
(0.0767322 -0.0118048 0.0437236)
(0.071694 -0.00603169 0.0447016)
(0.0650952 0.000301479 0.0458432)
(0.0569608 0.00820682 0.0468968)
(0.0473804 0.0147727 0.0489824)
(0.0355486 0.0209763 0.0523061)
(0.0210173 0.0293733 0.0549371)
(0.00701199 0.0332947 0.0383654)
(0.000735773 0.0321542 0.0236534)
(0.00179625 0.0510446 0.0423629)
(0.000838314 0.0484537 0.0457818)
(0.000481683 0.0263915 0.0441014)
(0.00357484 -0.0128901 0.0389059)
(0.00596466 -0.0437388 0.0347945)
(0.0127413 -0.0733117 0.0302841)
(0.0176875 -0.0958642 0.0264802)
(0.0239471 -0.113451 0.0233057)
(0.0295706 -0.123401 0.0212493)
(0.0344294 -0.127215 0.0199676)
(0.0404067 -0.126943 0.0190178)
(0.0442776 -0.125589 0.0186163)
(0.0493251 -0.122454 0.0181264)
(0.0533163 -0.118066 0.0176748)
(0.0568483 -0.11292 0.0172035)
(0.0599529 -0.107157 0.0165169)
(0.0622834 -0.0979186 0.017382)
(0.0644425 -0.0870117 0.01905)
(0.0656175 -0.0764124 0.0205356)
(0.0660746 -0.0676301 0.0204924)
(0.0662911 -0.0586989 0.0204809)
(0.066077 -0.0493815 0.0206069)
(0.0652627 -0.0396805 0.0209325)
(0.0638355 -0.0294915 0.0215696)
(0.0617382 -0.0186721 0.0226241)
(0.059088 -0.00783432 0.0232857)
(0.0560742 0.00336681 0.0241907)
(0.0504334 0.0209708 0.0272229)
(0.0466055 0.0296205 0.0289096)
(0.039711 0.0427704 0.0321063)
(0.0321173 0.0597172 0.03547)
(0.0229267 0.0795591 0.0403212)
(0.0118829 0.0985124 0.0418911)
(0.0032877 0.0908508 0.0302061)
(-0.000134064 -0.00174527 0.0160156)
(0.00284385 -0.00607745 0.0306137)
(0.00857067 -0.0289371 0.0326055)
(0.0167482 -0.0633354 0.0301087)
(0.02507 -0.0978934 0.0261538)
(0.0324322 -0.126602 0.0224919)
(0.0381718 -0.146781 0.0198211)
(0.0424412 -0.157783 0.0182902)
(0.0453259 -0.159284 0.0176836)
(0.046842 -0.158197 0.0174338)
(0.0484292 -0.155595 0.0170245)
(0.0492894 -0.151826 0.016574)
(0.050111 -0.146823 0.0160559)
(0.0506385 -0.140605 0.0155283)
(0.0509524 -0.133109 0.0150211)
(0.0514131 -0.124424 0.0145622)
(0.0506849 -0.115438 0.0134165)
(0.0510909 -0.10551 0.0135875)
(0.0502422 -0.0964438 0.0128831)
(0.0499148 -0.0870325 0.0119315)
(0.0492987 -0.0769753 0.0110937)
(0.0483223 -0.06635 0.0104564)
(0.047018 -0.0552447 0.0100869)
(0.0453832 -0.0436345 0.010101)
(0.0433933 -0.0316411 0.0105097)
(0.0411593 -0.019981 0.0109031)
(0.0386374 -0.00722964 0.011983)
(0.0347643 0.0106427 0.014758)
(0.0323443 0.0207852 0.0165072)
(0.0284101 0.0375993 0.018465)
(0.0240458 0.0575276 0.0213843)
(0.0195772 0.0791089 0.0262642)
(0.0127749 0.105231 0.0316275)
(0.0060988 0.121354 0.0342569)
(0.00170885 0.105242 0.0239397)
(-0.000333366 -0.00906709 0.0100518)
(0.00215553 -0.0468753 0.0151732)
(0.00764547 -0.090647 0.0138186)
(0.0139596 -0.12791 0.0116207)
(0.0194041 -0.151993 0.0104251)
(0.023401 -0.163493 0.0101529)
(0.0260598 -0.167248 0.0101811)
(0.0280273 -0.16738 0.0101045)
(0.0292894 -0.166575 0.00991687)
(0.0309229 -0.164815 0.00948589)
(0.0322263 -0.162513 0.00887804)
(0.0334169 -0.15876 0.0081257)
(0.0343228 -0.153722 0.0072585)
(0.0350379 -0.147264 0.00630902)
(0.0356332 -0.13956 0.00527192)
(0.035809 -0.130815 0.00420062)
(0.0366434 -0.120777 0.00385973)
(0.0364033 -0.110621 0.00209985)
(0.0365409 -0.0992673 0.000849761)
(0.0362583 -0.087066 -9.60455e-05)
(0.0356409 -0.0744034 -0.000933785)
(0.0347165 -0.0614546 -0.00168579)
(0.0335181 -0.0483111 -0.00228293)
(0.032105 -0.0350768 -0.00262212)
(0.0304906 -0.0217872 -0.00257184)
(0.028675 -0.00753077 -0.00197359)
(0.0261229 0.0099666 0.000100581)
(0.0245062 0.0204382 0.0017482)
(0.0217726 0.0354262 0.00425065)
(0.0193297 0.0504991 0.0096941)
(0.0163147 0.0687208 0.0159507)
(0.0125077 0.0947264 0.0222489)
(0.00786383 0.122543 0.0287411)
(0.00329267 0.135911 0.0287292)
(0.00051082 0.110155 0.0172484)
(0.000399415 -0.0220769 0.00531256)
(0.00402991 -0.0777262 0.00840592)
(0.00871424 -0.124826 0.00949099)
(0.012881 -0.154838 0.010377)
(0.0159378 -0.17104 0.0108367)
(0.0182465 -0.179942 0.0108319)
(0.0201803 -0.185048 0.0105187)
(0.0221602 -0.18741 0.00997537)
(0.0238414 -0.187131 0.00946699)
(0.0253471 -0.184715 0.00891911)
(0.0267493 -0.179026 0.00830788)
(0.0277947 -0.171801 0.00767881)
(0.0287069 -0.163305 0.00701309)
(0.0293333 -0.154102 0.00625521)
(0.0297159 -0.1443 0.00532763)
(0.0298089 -0.133891 0.00419367)
(0.0297674 -0.122813 0.00284381)
(0.0290672 -0.111127 0.00115984)
(0.0283043 -0.0985562 -0.000757328)
(0.0271457 -0.0852295 -0.00281579)
(0.0257073 -0.0713394 -0.00488042)
(0.0241892 -0.0573317 -0.00677461)
(0.022656 -0.0435128 -0.00835853)
(0.0211248 -0.0298957 -0.0095226)
(0.0196843 -0.0157677 -0.0100524)
(0.0181696 -0.000150583 -0.00986501)
(0.0172868 0.0104019 -0.00940421)
(0.0161601 0.0242467 -0.00809894)
(0.0152238 0.038804 -0.00487587)
(0.0136026 0.0552086 -0.00076508)
(0.011562 0.0754337 0.00564648)
(0.00869053 0.102574 0.0148429)
(0.00516778 0.13116 0.022006)
(0.00183493 0.14261 0.0222801)
(0.000121312 0.110073 0.0135755)
(0.000263749 -0.038951 0.00431405)
(0.00250101 -0.109515 0.00720231)
(0.00486459 -0.156878 0.00806895)
(0.00684984 -0.182307 0.00817119)
(0.00846642 -0.193652 0.00804857)
(0.00980331 -0.197868 0.0079232)
(0.011004 -0.198338 0.00782483)
(0.0119039 -0.196639 0.00775626)
(0.0127192 -0.192878 0.00762913)
(0.0133203 -0.187701 0.00739927)
(0.0137919 -0.181447 0.00704198)
(0.0141698 -0.174006 0.00653909)
(0.0145585 -0.165301 0.00590107)
(0.0145048 -0.155296 0.00523452)
(0.0146005 -0.143919 0.00417616)
(0.0144472 -0.131258 0.00268536)
(0.014179 -0.1173 0.000735283)
(0.0136898 -0.102038 -0.00142984)
(0.0130034 -0.0859747 -0.00370984)
(0.0122032 -0.069955 -0.00604988)
(0.0114016 -0.0548878 -0.00824165)
(0.0105821 -0.0410513 -0.0101285)
(0.00984754 -0.0281995 -0.0116243)
(0.00927788 -0.0156251 -0.0127398)
(0.00880723 -0.00321698 -0.0135038)
(0.00867862 0.00636755 -0.0136752)
(0.00864648 0.0171107 -0.0132712)
(0.00861435 0.0288532 -0.0122047)
(0.00842672 0.0426731 -0.0103391)
(0.00793119 0.0599622 -0.00698396)
(0.00711649 0.082826 -0.000476169)
(0.00524795 0.112138 0.00899605)
(0.00286608 0.138747 0.0160374)
(0.00063978 0.14679 0.0167833)
(-0.000292585 0.105823 0.00874586)
(0.000419473 -0.0455129 0.00235615)
(0.00187978 -0.118196 0.0048492)
(0.00299066 -0.162663 0.00628132)
(0.00367759 -0.185916 0.00722956)
(0.00413253 -0.196819 0.00784608)
(0.00458213 -0.201479 0.00824237)
(0.00509135 -0.202763 0.00848776)
(0.00556928 -0.201722 0.00861432)
(0.00604984 -0.198437 0.00867908)
(0.00651084 -0.193132 0.00868281)
(0.00692192 -0.185852 0.00860998)
(0.00729557 -0.176739 0.00840797)
(0.00738201 -0.166089 0.00797197)
(0.00781513 -0.154424 0.00712691)
(0.00781668 -0.141986 0.00636955)
(0.00762854 -0.128527 0.00570522)
(0.00751089 -0.114056 0.00461853)
(0.00736743 -0.0990615 0.00295179)
(0.00727294 -0.0838122 0.000797392)
(0.00721126 -0.0687231 -0.00161209)
(0.00716759 -0.0543172 -0.00408604)
(0.00708988 -0.0409791 -0.00644549)
(0.00694502 -0.0288954 -0.00853313)
(0.00677681 -0.0177819 -0.0102547)
(0.00666923 -0.00688309 -0.0115932)
(0.00666262 0.00411683 -0.0124649)
(0.00669711 0.0138959 -0.012779)
(0.00672679 0.0261625 -0.0124577)
(0.00668545 0.0408602 -0.0111508)
(0.00645269 0.0593319 -0.00827148)
(0.00577096 0.0833784 -0.00290528)
(0.00438024 0.114066 0.00500971)
(0.00254296 0.140376 0.0105958)
(0.000836183 0.147433 0.0106789)
(-2.38282e-05 0.102385 0.00533967)
(0.00021671 -0.0544184 0.00296443)
(0.000857719 -0.129782 0.00570002)
(0.00129706 -0.17283 0.00679074)
(0.00155569 -0.193876 0.00731095)
(0.00171738 -0.203506 0.007679)
(0.00183291 -0.207516 0.00798505)
(0.00196274 -0.207821 0.00827109)
(0.00211928 -0.20538 0.00856624)
(0.00226622 -0.200831 0.00887368)
(0.0024157 -0.194625 0.00916713)
(0.00257718 -0.186959 0.00941607)
(0.00276054 -0.17792 0.00957464)
(0.0030186 -0.167511 0.00957729)
(0.00329173 -0.15567 0.00932967)
(0.00353893 -0.142553 0.00866947)
(0.00401908 -0.128557 0.00751021)
(0.00429444 -0.113884 0.00610741)
(0.00466038 -0.0984908 0.00429298)
(0.00502277 -0.0825275 0.00206361)
(0.00535813 -0.0664724 -0.000437837)
(0.00563353 -0.050844 -0.00300972)
(0.00583178 -0.036009 -0.00547196)
(0.00590372 -0.0222507 -0.0076677)
(0.00591057 -0.00980529 -0.009722)
(0.00586583 0.000941719 -0.0112641)
(0.00588098 0.00946438 -0.0121444)
(0.00591047 0.018916 -0.0126314)
(0.00587447 0.0298141 -0.0126143)
(0.00579533 0.0435562 -0.0116585)
(0.00560744 0.0622794 -0.00915657)
(0.00498536 0.0886618 -0.00444187)
(0.0037368 0.120653 0.00226402)
(0.00217603 0.145345 0.007185)
(0.000753868 0.149864 0.00832554)
(-5.52545e-05 0.101814 0.00355589)
(-2.68913e-05 -0.0554722 0.00255517)
(-0.000177828 -0.130739 0.00461831)
(-0.000538678 -0.173501 0.0053397)
(-0.000814278 -0.194418 0.00602737)
(-0.00108403 -0.203949 0.00665099)
(-0.00134399 -0.207988 0.00724381)
(-0.00156792 -0.20878 0.00780821)
(-0.00172189 -0.207083 0.00839035)
(-0.00179727 -0.203224 0.00901447)
(-0.00180451 -0.19742 0.00970653)
(-0.00175526 -0.189863 0.0104691)
(-0.00165334 -0.180735 0.0112746)
(-0.00149971 -0.170219 0.0120617)
(-0.00127157 -0.158472 0.0127314)
(-0.000948188 -0.145573 0.0131443)
(-0.000531387 -0.131579 0.01312)
(-7.66114e-06 -0.11665 0.0124812)
(0.000603889 -0.100985 0.0111182)
(0.0013098 -0.0847941 0.00898346)
(0.00210057 -0.0683845 0.00614168)
(0.00291804 -0.0523359 0.00285217)
(0.00368389 -0.0372327 -0.000510349)
(0.0043751 -0.0235174 -0.00360166)
(0.00488233 -0.0113464 -0.00599212)
(0.0052492 -0.000401014 -0.00805165)
(0.00548973 0.00873193 -0.00939655)
(0.00564817 0.0189761 -0.0103572)
(0.00568627 0.0305876 -0.0107503)
(0.00556963 0.0448498 -0.0105457)
(0.00526181 0.0645299 -0.00898577)
(0.00464224 0.0920759 -0.00529806)
(0.00352574 0.124944 0.000152717)
(0.0021749 0.148955 0.00422446)
(0.000869765 0.152475 0.00532461)
(7.9576e-06 0.101897 0.00253093)
(-3.88902e-05 -0.0556735 0.00255669)
(-0.000238678 -0.130746 0.00434516)
(-0.000525109 -0.173797 0.00471162)
(-0.000789191 -0.19521 0.00492255)
(-0.00100242 -0.204909 0.00520817)
(-0.00118663 -0.208935 0.00556416)
(-0.00132729 -0.209604 0.00596946)
(-0.00141513 -0.207807 0.0064407)
(-0.00143542 -0.203967 0.00698969)
(-0.00137999 -0.198361 0.00763489)
(-0.00124124 -0.191211 0.00839962)
(-0.00101503 -0.182687 0.00930268)
(-0.000700673 -0.172929 0.0103504)
(-0.000305354 -0.16205 0.0115246)
(0.000162959 -0.150132 0.0127668)
(0.000702007 -0.137223 0.0139616)
(0.00131707 -0.123344 0.0149221)
(0.00200886 -0.108536 0.0154068)
(0.00277672 -0.0928858 0.0151552)
(0.00361751 -0.0765306 0.0139354)
(0.00450786 -0.0597007 0.011617)
(0.00538806 -0.0428248 0.00827087)
(0.00617531 -0.026548 0.00423254)
(0.00672443 -0.0116098 2.90331e-05)
(0.00696678 0.00135884 -0.00352425)
(0.00696823 0.0109997 -0.00588222)
(0.00685963 0.0215252 -0.0077394)
(0.00660666 0.0333514 -0.00888786)
(0.00625011 0.0483743 -0.00910995)
(0.00569037 0.0689793 -0.00815664)
(0.0049027 0.0975549 -0.00534268)
(0.00368959 0.131016 -0.000949973)
(0.00233516 0.154292 0.00240787)
(0.00104359 0.15659 0.00358424)
(8.2262e-05 0.102938 0.00197936)
(-8.71587e-05 -0.0555603 0.00217407)
(-0.000302673 -0.130857 0.00308966)
(-0.000518605 -0.173903 0.00289605)
(-0.000615376 -0.195552 0.00263666)
(-0.000646743 -0.205744 0.0026619)
(-0.000647196 -0.21034 0.00282321)
(-0.000588448 -0.211642 0.00306086)
(-0.000459214 -0.210522 0.00337429)
(-0.00025432 -0.207361 0.00377621)
(2.86162e-05 -0.202404 0.00428072)
(0.000387294 -0.195832 0.00490305)
(0.000815792 -0.187784 0.00565982)
(0.00130791 -0.17837 0.0065692)
(0.00185415 -0.167697 0.00764953)
(0.00244046 -0.155884 0.00891244)
(0.0030514 -0.143052 0.0103496)
(0.00367372 -0.129304 0.0119125)
(0.00430001 -0.114716 0.0134855)
(0.00492506 -0.0993499 0.0148645)
(0.00554978 -0.0832962 0.0157581)
(0.00618074 -0.0666651 0.0158233)
(0.00682062 -0.0496047 0.0147499)
(0.00744416 -0.0323316 0.0123662)
(0.00796554 -0.0151789 0.00869268)
(0.00820662 0.000913744 0.0041635)
(0.00820368 0.0123755 0.000798916)
(0.0079871 0.024715 -0.00235704)
(0.00751781 0.0377177 -0.00476733)
(0.00687759 0.0533508 -0.00627001)
(0.00608575 0.0745575 -0.00653677)
(0.00514064 0.103776 -0.00496968)
(0.00387299 0.137484 -0.00172342)
(0.00251957 0.160113 0.0010099)
(0.00122653 0.161454 0.0022737)
(0.000155225 0.10553 0.0015463)
(-5.07836e-05 -0.055175 0.00173823)
(-3.43057e-05 -0.130399 0.00209907)
(0.000150996 -0.174281 0.001411)
(0.000444444 -0.196991 0.00092462)
(0.000737369 -0.207762 0.000838797)
(0.00104066 -0.212669 0.000909138)
(0.00134295 -0.214231 0.00104127)
(0.00165886 -0.213369 0.00120916)
(0.00200619 -0.210462 0.00142574)
(0.00238066 -0.205783 0.00170478)
(0.00278707 -0.199522 0.00205856)
(0.00322216 -0.191848 0.00250249)
(0.00368915 -0.18288 0.00306086)
(0.00418688 -0.172695 0.00377144)
(0.00470702 -0.161358 0.00466842)
(0.00524133 -0.148936 0.00577828)
(0.00578196 -0.135498 0.00711607)
(0.00632144 -0.121116 0.00867349)
(0.00685029 -0.105855 0.0103939)
(0.00735787 -0.0898018 0.0121383)
(0.0078357 -0.0730645 0.0136577)
(0.00827661 -0.0557492 0.0146089)
(0.00866433 -0.0378434 0.0145872)
(0.00896409 -0.0192315 0.0131398)
(0.0090855 -0.000825029 0.0101037)
(0.00903989 0.0124736 0.00710131)
(0.00878325 0.0272762 0.00345161)
(0.00824591 0.0423371 9.19504e-05)
(0.00747545 0.0593763 -0.002532)
(0.00650621 0.0814415 -0.0040049)
(0.00538841 0.111166 -0.00373253)
(0.00398811 0.145005 -0.00170508)
(0.00257232 0.167127 0.000362104)
(0.00122236 0.167537 0.00159233)
(0.000113949 0.108741 0.0013753)
(-2.20221e-05 -0.0560587 0.000754461)
(0.000256694 -0.132906 2.94325e-05)
(0.000785495 -0.177498 -0.000831273)
(0.00133707 -0.200262 -0.00108943)
(0.00183807 -0.211196 -0.00103962)
(0.00228774 -0.216304 -0.000875392)
(0.00270901 -0.218057 -0.000671615)
(0.00309902 -0.217379 -0.000465887)
(0.00348773 -0.21461 -0.000237964)
(0.00386408 -0.210018 2.9013e-05)
(0.00424019 -0.203771 0.000341061)
(0.00461091 -0.196042 0.000696534)
(0.00499275 -0.186985 0.00110434)
(0.00537216 -0.176641 0.0016397)
(0.00573384 -0.165124 0.00232391)
(0.00607587 -0.152583 0.00316408)
(0.00640885 -0.139143 0.00416707)
(0.00674283 -0.124878 0.00534919)
(0.0070811 -0.109825 0.00671961)
(0.00741932 -0.0940176 0.00825753)
(0.00775486 -0.0774892 0.00988045)
(0.00808028 -0.0602124 0.0114355)
(0.00837141 -0.0420185 0.0126477)
(0.00859865 -0.0226852 0.0130957)
(0.00871407 -0.00312328 0.0123315)
(0.00868572 0.0115486 0.0107461)
(0.00849497 0.0285374 0.00778605)
(0.00805049 0.0459345 0.00422278)
(0.00733483 0.064991 0.000807323)
(0.006351 0.0885843 -0.00172949)
(0.0051468 0.119271 -0.00260243)
(0.0036601 0.153269 -0.00159822)
(0.00224608 0.174604 -0.000105193)
(0.000987606 0.173887 0.000949149)
(-1.50068e-05 0.111386 0.00106353)
(1.43761e-05 -0.0573508 0.000455602)
(0.000435476 -0.135357 -0.000320472)
(0.00110143 -0.180173 -0.00132449)
(0.00180504 -0.202872 -0.00202791)
(0.00244715 -0.213716 -0.00239581)
(0.00302376 -0.2188 -0.0025632)
(0.00355388 -0.220557 -0.00261344)
(0.00402813 -0.219884 -0.00259594)
(0.00448757 -0.217101 -0.00252171)
(0.00491447 -0.212497 -0.00237193)
(0.00532575 -0.206257 -0.00214942)
(0.00569548 -0.198604 -0.0018915)
(0.00604217 -0.189752 -0.00165814)
(0.00626646 -0.179375 -0.00110252)
(0.0064614 -0.167796 -0.000346289)
(0.00662692 -0.155258 0.00055273)
(0.00678584 -0.141914 0.00155312)
(0.00695254 -0.127818 0.00265745)
(0.00713418 -0.112955 0.00391047)
(0.007343 -0.0973255 0.00533382)
(0.00756805 -0.0810618 0.00682184)
(0.00778839 -0.0640387 0.00837838)
(0.00798509 -0.0459345 0.00995152)
(0.00814178 -0.0264054 0.011331)
(0.0082123 -0.00618227 0.0120977)
(0.00813911 0.00974232 0.0118471)
(0.00790884 0.0280835 0.0103762)
(0.007535 0.047996 0.00758182)
(0.00684423 0.069644 0.00410775)
(0.00586911 0.0955264 0.000847787)
(0.00467084 0.127658 -0.0011136)
(0.0032449 0.161649 -0.00117527)
(0.0019644 0.181673 -0.000310035)
(0.000834903 0.17953 0.000520464)
(-5.48824e-05 0.113124 0.000814029)
(2.11815e-05 -0.0590234 -2.14966e-05)
(0.000537507 -0.138746 -0.00126305)
(0.00141084 -0.184174 -0.00244069)
(0.00233912 -0.206816 -0.00321334)
(0.00318494 -0.217459 -0.00370214)
(0.00393916 -0.222383 -0.00404922)
(0.00462271 -0.224044 -0.00431634)
(0.00521066 -0.223343 -0.00451204)
(0.00575717 -0.220538 -0.00465219)
(0.00622233 -0.215877 -0.00468217)
(0.00662127 -0.209458 -0.00456293)
(0.00694461 -0.201245 -0.00419834)
(0.00714294 -0.19121 -0.00351762)
(0.0072421 -0.180154 -0.00263093)
(0.00726444 -0.168275 -0.00163751)
(0.00727427 -0.155708 -0.000691065)
(0.00728663 -0.1425 0.000217609)
(0.00726071 -0.128642 0.00127324)
(0.00727514 -0.114221 0.00225011)
(0.00728937 -0.0991469 0.00329831)
(0.00733109 -0.0832038 0.00451002)
(0.00739399 -0.0663337 0.0058907)
(0.0074734 -0.0482806 0.00746168)
(0.00756738 -0.0287795 0.00901346)
(0.00767932 -0.00814046 0.0103655)
(0.00754187 0.00896429 0.0108724)
(0.00727438 0.0275816 0.0105285)
(0.00694617 0.0495769 0.00894884)
(0.00636217 0.0735918 0.00625157)
(0.00548403 0.101509 0.00312924)
(0.00443828 0.13486 0.000681276)
(0.00319652 0.168843 -0.000193115)
(0.00200978 0.187972 6.6945e-05)
(0.000918325 0.184714 0.000557363)
(4.1197e-06 0.114915 0.000734809)
(3.13608e-05 -0.0606975 -0.000555298)
(0.000677603 -0.142385 -0.00206056)
(0.0017494 -0.188515 -0.00318323)
(0.0028639 -0.210981 -0.00395968)
(0.00388207 -0.22121 -0.00451281)
(0.0047926 -0.225697 -0.00495491)
(0.00561516 -0.226894 -0.00534901)
(0.00630102 -0.225739 -0.00568929)
(0.00691649 -0.222384 -0.00602338)
(0.00738777 -0.217116 -0.00628522)
(0.00775134 -0.210112 -0.00645726)
(0.00802015 -0.201375 -0.0063197)
(0.00804727 -0.191129 -0.00544548)
(0.00813081 -0.180028 -0.00472598)
(0.00813626 -0.168188 -0.00396537)
(0.0080884 -0.155634 -0.00297825)
(0.00799777 -0.142417 -0.00178364)
(0.00791505 -0.128619 -0.000582502)
(0.0077979 -0.114212 0.000716279)
(0.00768891 -0.0992448 0.00196676)
(0.00758897 -0.083693 0.00317582)
(0.00751959 -0.0674402 0.00432541)
(0.00748039 -0.0501559 0.00552913)
(0.00749721 -0.0313396 0.00698824)
(0.00760433 -0.0114119 0.00843676)
(0.00751357 0.00905833 0.00947065)
(0.00727774 0.0264127 0.00969919)
(0.00695964 0.0495994 0.00890006)
(0.00644298 0.0758737 0.00696896)
(0.0055661 0.106001 0.00428672)
(0.00446295 0.141019 0.00186649)
(0.00309674 0.175867 0.000655721)
(0.00184263 0.194699 0.000563122)
(0.000770994 0.190457 0.000783846)
(-6.08443e-05 0.117081 0.000708117)
(3.38258e-05 -0.0628139 -0.000721562)
(0.000801627 -0.147026 -0.00198572)
(0.00204932 -0.193999 -0.00295257)
(0.0033323 -0.216252 -0.00382263)
(0.0045123 -0.226037 -0.00457223)
(0.00558358 -0.230065 -0.00523326)
(0.00656904 -0.230767 -0.00585549)
(0.00739488 -0.22912 -0.00641514)
(0.00814635 -0.225132 -0.00702737)
(0.0087118 -0.219098 -0.00762405)
(0.00919678 -0.211071 -0.0081477)
(0.00934366 -0.201334 -0.00821187)
(0.00954538 -0.190652 -0.0086398)
(0.00952528 -0.179105 -0.00870756)
(0.00943556 -0.166904 -0.00836931)
(0.00926441 -0.154201 -0.00761428)
(0.00904392 -0.141041 -0.00647679)
(0.00879291 -0.127422 -0.00502421)
(0.00852397 -0.113333 -0.00334703)
(0.00825494 -0.0987346 -0.00154174)
(0.00800546 -0.083512 0.000314586)
(0.00778169 -0.0674927 0.00217017)
(0.0075885 -0.0505221 0.00389992)
(0.00742882 -0.0324015 0.00548923)
(0.00730547 -0.01291 0.00696952)
(0.00713987 0.00806211 0.00816367)
(0.00687839 0.0263442 0.00863359)
(0.00653384 0.0506034 0.00839115)
(0.00594201 0.0790602 0.00682713)
(0.00499598 0.111954 0.00427409)
(0.00369131 0.149102 0.00173645)
(0.00222188 0.184069 0.000303264)
(0.00113653 0.201216 4.20163e-05)
(0.000290377 0.195129 0.000190837)
(-0.000227619 0.118077 0.000279541)
(5.96633e-05 -0.065223 -0.00104049)
(0.0010413 -0.152385 -0.0021898)
(0.00253045 -0.200278 -0.0029162)
(0.00401374 -0.222175 -0.00371341)
(0.00536791 -0.231345 -0.00452756)
(0.00660521 -0.234741 -0.0053396)
(0.00774917 -0.234749 -0.00616853)
(0.00869958 -0.232369 -0.00698085)
(0.00950531 -0.227512 -0.00792989)
(0.0101235 -0.220352 -0.00891754)
(0.0104012 -0.211 -0.00971074)
(0.010683 -0.200366 -0.0109823)
(0.0106747 -0.18857 -0.0119014)
(0.0105551 -0.176026 -0.0124078)
(0.0103113 -0.163101 -0.0124591)
(0.00999009 -0.149984 -0.0120429)
(0.00961948 -0.13667 -0.0111718)
(0.00921237 -0.123074 -0.00988517)
(0.00877316 -0.109191 -0.00825949)
(0.00831322 -0.0950483 -0.00639398)
(0.00786135 -0.0805713 -0.00438118)
(0.0074474 -0.0654454 -0.002276)
(0.00708173 -0.0492449 -9.69207e-05)
(0.00673147 -0.031563 0.0021258)
(0.00632402 -0.0121884 0.00432163)
(0.00597396 0.00855663 0.00630723)
(0.00573987 0.0273315 0.00755481)
(0.00529596 0.0525247 0.0080046)
(0.00471644 0.0828565 0.0071688)
(0.00386535 0.118159 0.00495591)
(0.0027877 0.15673 0.00228208)
(0.00168996 0.190723 0.000483586)
(0.000916625 0.205853 -9.51077e-05)
(0.000263105 0.197938 -0.000177802)
(-0.000143892 0.118108 -2.55071e-05)
(7.55904e-05 -0.0686944 -0.00105737)
(0.00121625 -0.159598 -0.00162155)
(0.002808 -0.208252 -0.002013)
(0.00432906 -0.229515 -0.00283514)
(0.00569555 -0.237897 -0.00380313)
(0.0069873 -0.240498 -0.00480813)
(0.0080822 -0.239734 -0.00572443)
(0.00908342 -0.23604 -0.00679653)
(0.00972891 -0.229635 -0.00798373)
(0.0102293 -0.220613 -0.00933021)
(0.0104846 -0.209975 -0.0109005)
(0.0104924 -0.197786 -0.0122941)
(0.0103362 -0.184652 -0.0134672)
(0.010051 -0.171171 -0.0143102)
(0.00970706 -0.157694 -0.0147342)
(0.00933937 -0.144319 -0.014703)
(0.00896566 -0.130944 -0.014216)
(0.00858484 -0.117361 -0.0132851)
(0.00818405 -0.103539 -0.0119619)
(0.00775203 -0.089571 -0.0103332)
(0.00729706 -0.0754767 -0.00849083)
(0.00683851 -0.0609322 -0.0064795)
(0.00639901 -0.0453758 -0.00428468)
(0.00598559 -0.0280928 -0.00184251)
(0.00557314 -0.00884041 0.000779146)
(0.00530978 0.00901634 0.00297924)
(0.00507712 0.0284384 0.00489109)
(0.00465759 0.0544199 0.00643623)
(0.00416962 0.085686 0.00684887)
(0.00361163 0.122005 0.00571826)
(0.00297053 0.161217 0.0035695)
(0.00220452 0.195043 0.00170222)
(0.00144797 0.209746 0.000845197)
(0.00070226 0.201186 0.000440281)
(4.02812e-05 0.118967 0.000177379)
(0.000124225 -0.0726495 -0.000826217)
(0.00129197 -0.167003 -0.000562707)
(0.00274682 -0.215849 -0.000470002)
(0.00407059 -0.236117 -0.0011559)
(0.00524721 -0.243506 -0.0021611)
(0.00634778 -0.245095 -0.0033071)
(0.00731259 -0.243219 -0.00444455)
(0.0079342 -0.238124 -0.00581609)
(0.0085925 -0.229799 -0.00763865)
(0.00879099 -0.219413 -0.00953735)
(0.0088623 -0.206925 -0.01145)
(0.00868943 -0.193144 -0.0132387)
(0.00838596 -0.178978 -0.0147194)
(0.00803968 -0.165011 -0.0157835)
(0.00770414 -0.151437 -0.0163985)
(0.00740468 -0.138178 -0.0165716)
(0.00714393 -0.125001 -0.0163214)
(0.00691297 -0.111626 -0.0156611)
(0.00669065 -0.0979386 -0.0146222)
(0.00645368 -0.0840896 -0.0132797)
(0.00619732 -0.0702148 -0.011717)
(0.00593147 -0.0560538 -0.00996324)
(0.00568007 -0.0411652 -0.00800539)
(0.00549091 -0.0249953 -0.00578487)
(0.00541986 -0.00712849 -0.00329312)
(0.00542176 0.0098768 -0.00109032)
(0.00532639 0.029652 0.00103246)
(0.0050328 0.0555334 0.00320337)
(0.00454365 0.0870492 0.00472501)
(0.00394171 0.124137 0.00498912)
(0.00340988 0.164651 0.00398392)
(0.00246789 0.199915 0.00255721)
(0.00139687 0.215154 0.00166625)
(0.000623546 0.20619 0.0010214)
(-5.70613e-05 0.121339 -7.997e-06)
(0.000128185 -0.0769026 -0.000431237)
(0.00110424 -0.174152 0.000583278)
(0.00222783 -0.222593 0.00104537)
(0.00320322 -0.241682 0.000506441)
(0.00406732 -0.248098 -0.000443737)
(0.00490223 -0.248702 -0.00161818)
(0.00550589 -0.245568 -0.00294356)
(0.00619008 -0.238594 -0.0048145)
(0.00639219 -0.229023 -0.00667367)
(0.00655244 -0.216595 -0.00882161)
(0.00640986 -0.202271 -0.0111017)
(0.00613614 -0.187294 -0.0132585)
(0.00581638 -0.172612 -0.0150757)
(0.00551988 -0.158633 -0.0164347)
(0.00528021 -0.145328 -0.017308)
(0.00510486 -0.132444 -0.0177174)
(0.00498618 -0.119654 -0.0176948)
(0.00491055 -0.106638 -0.0172618)
(0.0048566 -0.0932008 -0.0164385)
(0.0047982 -0.0795486 -0.015302)
(0.00472486 -0.0659432 -0.0139451)
(0.00464476 -0.0521997 -0.0123968)
(0.00457889 -0.0379975 -0.0106627)
(0.00457567 -0.0229069 -0.00871742)
(0.00468733 -0.00625942 -0.00652449)
(0.00484753 0.010447 -0.00449757)
(0.00488989 0.0307913 -0.00241123)
(0.0046798 0.0574492 -0.000301935)
(0.00415121 0.0903778 0.00136454)
(0.00319936 0.129409 0.00216715)
(0.00195101 0.171714 0.00200735)
(0.000815781 0.207036 0.00128274)
(0.00014145 0.220721 0.000640818)
(-0.000282667 0.209664 -0.000175095)
(-0.000300937 0.121361 -0.00054807)
(8.88145e-05 -0.080082 0.000208483)
(0.000736649 -0.179175 0.00213114)
(0.0014257 -0.22703 0.00301437)
(0.00201321 -0.245042 0.00259119)
(0.00256474 -0.250624 0.00163877)
(0.003083 -0.250442 0.000480965)
(0.00348781 -0.246313 -0.000870645)
(0.00383504 -0.238333 -0.0027611)
(0.0040205 -0.226793 -0.0050007)
(0.00401493 -0.212554 -0.00756079)
(0.00388537 -0.196936 -0.0102338)
(0.00368279 -0.181293 -0.0127342)
(0.00347358 -0.166461 -0.0148326)
(0.00329732 -0.152641 -0.016427)
(0.00317079 -0.139633 -0.0175131)
(0.00309511 -0.127082 -0.0181287)
(0.0030628 -0.114611 -0.0183151)
(0.00306226 -0.10187 -0.0180982)
(0.00308105 -0.0886294 -0.0174907)
(0.00309643 -0.0750896 -0.0165592)
(0.00309004 -0.0616453 -0.0154045)
(0.0030648 -0.0481825 -0.0140461)
(0.00302818 -0.0344773 -0.0124868)
(0.00299715 -0.0202199 -0.0107145)
(0.00300692 -0.00458159 -0.00867028)
(0.00300823 0.0122553 -0.00656288)
(0.00292181 0.0341571 -0.00412015)
(0.0026816 0.0622094 -0.00174499)
(0.00220059 0.0971721 -0.000100294)
(0.00134634 0.137888 0.000383819)
(0.000277719 0.179721 -4.58531e-06)
(-0.000344403 0.21172 -0.000613499)
(-0.000531284 0.222613 -0.0009849)
(-0.000467914 0.20947 -0.00104531)
(-0.000346116 0.119317 -0.00109007)
(6.45051e-05 -0.0823006 0.000780226)
(0.000454206 -0.182703 0.00346887)
(0.000782976 -0.230153 0.0048484)
(0.00105014 -0.247489 0.00475935)
(0.00133382 -0.252481 0.00401532)
(0.00160471 -0.251627 0.00291266)
(0.0018923 -0.246392 0.00134641)
(0.00205725 -0.23727 -0.000523382)
(0.00219519 -0.224613 -0.00282459)
(0.00225798 -0.209288 -0.00553991)
(0.00226678 -0.192771 -0.00844162)
(0.00223212 -0.176515 -0.0112047)
(0.00217465 -0.16136 -0.0135776)
(0.00211598 -0.147449 -0.0154421)
(0.00207525 -0.134496 -0.0167906)
(0.00206225 -0.122071 -0.0176622)
(0.00207904 -0.109755 -0.0181012)
(0.00212194 -0.0971896 -0.0181405)
(0.00218728 -0.0841251 -0.0177993)
(0.00226111 -0.0706589 -0.017128)
(0.00231808 -0.0572782 -0.0162456)
(0.00235625 -0.0439085 -0.0151759)
(0.00237264 -0.0303313 -0.013922)
(0.00235704 -0.0162393 -0.0124615)
(0.00229733 -0.000794482 -0.0106813)
(0.00217363 0.0160383 -0.00861395)
(0.00197048 0.037713 -0.0059563)
(0.00174137 0.0655966 -0.00297909)
(0.00153822 0.100772 -0.000473525)
(0.00128941 0.141797 0.000604356)
(0.000955065 0.183036 0.000252354)
(0.000607383 0.213414 -0.00053424)
(0.000305515 0.223388 -0.00105549)
(4.42307e-05 0.209528 -0.00126008)
(5.03062e-05 0.118643 -0.00107742)
(4.46682e-05 -0.083908 0.00131706)
(0.0002813 -0.185049 0.0046348)
(0.000384643 -0.231893 0.00632381)
(0.000421515 -0.248647 0.00646513)
(0.00048157 -0.253303 0.00594623)
(0.000535745 -0.252089 0.00495767)
(0.000680478 -0.246392 0.00342499)
(0.000772192 -0.236748 0.00168515)
(0.000945955 -0.223456 -0.000601945)
(0.00106428 -0.207447 -0.00331349)
(0.00124852 -0.19017 -0.00641415)
(0.00140781 -0.17315 -0.00947606)
(0.00150227 -0.157352 -0.0121342)
(0.00156593 -0.143039 -0.0142601)
(0.00161556 -0.129925 -0.0158342)
(0.00166987 -0.117512 -0.0169093)
(0.00174404 -0.10531 -0.0175473)
(0.00184588 -0.0929203 -0.0177965)
(0.00197797 -0.0800741 -0.0176871)
(0.00213596 -0.066754 -0.0172535)
(0.00229281 -0.0534716 -0.0166199)
(0.00244383 -0.0402253 -0.0158208)
(0.00258624 -0.0267931 -0.0148675)
(0.00271244 -0.0128098 -0.01375)
(0.00280995 0.00260182 -0.0123583)
(0.00283631 0.0193042 -0.0107202)
(0.00274901 0.0407571 -0.00849682)
(0.00253351 0.0679527 -0.00569879)
(0.00222969 0.102301 -0.0026964)
(0.00196898 0.1433 -0.000444118)
(0.00163823 0.185592 0.000306355)
(0.00107043 0.217083 4.75319e-06)
(0.000542561 0.227345 -0.000479467)
(0.000179432 0.212482 -0.000945207)
(-1.87528e-05 0.119766 -0.00100936)
(1.47304e-05 -0.0852914 0.0019646)
(6.07823e-05 -0.187238 0.00601804)
(-8.0973e-05 -0.233513 0.00811105)
(-0.00023225 -0.249559 0.00847608)
(-0.000396225 -0.25376 0.00813115)
(-0.000462568 -0.252178 0.00715079)
(-0.000444089 -0.246319 0.00589302)
(-0.000503461 -0.236545 0.00449777)
(-0.000400957 -0.223057 0.00207362)
(-0.000196793 -0.206814 -0.000993988)
(3.40783e-05 -0.189066 -0.00415696)
(0.000312234 -0.171208 -0.00727985)
(0.000593322 -0.154531 -0.0102332)
(0.000793116 -0.139549 -0.0127464)